 Entering Gaussian System, Link 0=g16
 Input=hydroxyl_rotor.com
 Output=hydroxyl_rotor.log
 Initial command:
 /projects/jasm3285/g16/l1.exe "/rc_scratch/jasm3285/Gau-68928.inp" -scrdir="/rc_scratch/jasm3285/"
 Entering Link 1 = /projects/jasm3285/g16/l1.exe PID=     68929.
  
 Copyright (c) 1988,1990,1992,1993,1995,1998,2003,2009,2016,
            Gaussian, Inc.  All Rights Reserved.
  
 This is part of the Gaussian(R) 16 program.  It is based on
 the Gaussian(R) 09 system (copyright 2009, Gaussian, Inc.),
 the Gaussian(R) 03 system (copyright 2003, Gaussian, Inc.),
 the Gaussian(R) 98 system (copyright 1998, Gaussian, Inc.),
 the Gaussian(R) 94 system (copyright 1995, Gaussian, Inc.),
 the Gaussian 92(TM) system (copyright 1992, Gaussian, Inc.),
 the Gaussian 90(TM) system (copyright 1990, Gaussian, Inc.),
 the Gaussian 88(TM) system (copyright 1988, Gaussian, Inc.),
 the Gaussian 86(TM) system (copyright 1986, Carnegie Mellon
 University), and the Gaussian 82(TM) system (copyright 1983,
 Carnegie Mellon University). Gaussian is a federally registered
 trademark of Gaussian, Inc.
  
 This software contains proprietary and confidential information,
 including trade secrets, belonging to Gaussian, Inc.
  
 This software is provided under written license and may be
 used, copied, transmitted, or stored only in accord with that
 written license.
  
 The following legend is applicable only to US Government
 contracts under FAR:
  
                    RESTRICTED RIGHTS LEGEND
  
 Use, reproduction and disclosure by the US Government is
 subject to restrictions as set forth in subparagraphs (a)
 and (c) of the Commercial Computer Software - Restricted
 Rights clause in FAR 52.227-19.
  
 Gaussian, Inc.
 340 Quinnipiac St., Bldg. 40, Wallingford CT 06492
  
  
 ---------------------------------------------------------------
 Warning -- This program may not be used in any manner that
 competes with the business of Gaussian, Inc. or will provide
 assistance to any competitor of Gaussian, Inc.  The licensee
 of this program is prohibited from giving any competitor of
 Gaussian, Inc. access to this program.  By using this program,
 the user acknowledges that Gaussian, Inc. is engaged in the
 business of creating and licensing software in the field of
 computational chemistry and represents and warrants to the
 licensee that it is not a competitor of Gaussian, Inc. and that
 it will not use this program in any manner prohibited above.
 ---------------------------------------------------------------
  

 Cite this work as:
 Gaussian 16, Revision A.03,
 M. J. Frisch, G. W. Trucks, H. B. Schlegel, G. E. Scuseria, 
 M. A. Robb, J. R. Cheeseman, G. Scalmani, V. Barone, 
 G. A. Petersson, H. Nakatsuji, X. Li, M. Caricato, A. V. Marenich, 
 J. Bloino, B. G. Janesko, R. Gomperts, B. Mennucci, H. P. Hratchian, 
 J. V. Ortiz, A. F. Izmaylov, J. L. Sonnenberg, D. Williams-Young, 
 F. Ding, F. Lipparini, F. Egidi, J. Goings, B. Peng, A. Petrone, 
 T. Henderson, D. Ranasinghe, V. G. Zakrzewski, J. Gao, N. Rega, 
 G. Zheng, W. Liang, M. Hada, M. Ehara, K. Toyota, R. Fukuda, 
 J. Hasegawa, M. Ishida, T. Nakajima, Y. Honda, O. Kitao, H. Nakai, 
 T. Vreven, K. Throssell, J. A. Montgomery, Jr., J. E. Peralta, 
 F. Ogliaro, M. J. Bearpark, J. J. Heyd, E. N. Brothers, K. N. Kudin, 
 V. N. Staroverov, T. A. Keith, R. Kobayashi, J. Normand, 
 K. Raghavachari, A. P. Rendell, J. C. Burant, S. S. Iyengar, 
 J. Tomasi, M. Cossi, J. M. Millam, M. Klene, C. Adamo, R. Cammi, 
 J. W. Ochterski, R. L. Martin, K. Morokuma, O. Farkas, 
 J. B. Foresman, and D. J. Fox, Gaussian, Inc., Wallingford CT, 2016.
 
 ******************************************
 Gaussian 16:  ES64L-G16RevA.03 25-Dec-2016
                12-Feb-2018 
 ******************************************
 ----------------------------------------------------------------------
 # opt=(calcfc,tight,modredundant,noeigentest) freq cbs-qb3 scf=qc geom
 =connectivity ccsd=maxcyc=1000 optcyc=100
 ----------------------------------------------------------------------
 1/6=100,7=10,10=4,11=1,18=120,19=15,26=3,38=1,57=2/1,3;
 2/9=110,12=2,17=6,18=5,40=1/2;
 3/5=4,6=6,7=700,11=2,25=1,30=1,71=2,74=-5,140=1/1,2,3;
 4//1;
 5/5=2,8=3,38=5/8;
 8/6=4,10=90,11=11/1;
 11/6=1,8=1,9=11,15=111,16=1/1,2,10;
 10/6=1,13=1/2;
 6/7=2,8=2,9=2,10=2,28=1/1;
 7/10=1,18=20,25=1/1,2,3,16;
 1/6=100,7=10,10=4,11=1,18=20,19=15,26=3/3(2);
 2/9=110/2;
 99//99;
 2/9=110/2;
 3/5=4,6=6,7=700,11=2,25=1,30=1,71=1,74=-5/1,2,3;
 4/5=5,16=3,69=1/1;
 5/5=2,8=3,38=5/8;
 7//1,2,3,16;
 1/6=100,7=10,11=1,18=20,19=15,26=3/3(-5);
 2/9=110/2;
 6/7=2,8=2,9=2,10=2,19=2,28=1/1;
 99/9=1/99;
 -------------------
 Title Card Required
 -------------------
 Symbolic Z-matrix:
 Charge =  0 Multiplicity = 2
 C                    -1.00162   1.21849  -0.10667 
 H                    -0.58323   1.37087  -1.10269 
 H                    -0.70739   2.05816   0.53042 
 H                    -2.09373   1.22356  -0.17714 
 C                    -0.50485  -0.10733   0.46013 
 H                    -0.88332  -0.23955   1.48663 
 C                     1.02432  -0.18024   0.52257 
 H                     1.40973   0.45215   1.34769 
 H                     1.33758  -1.20474   0.79472 
 O                    -0.90517  -1.21384  -0.35061 
 H                    -1.85622  -1.15947  -0.48428 
 O                     1.68886   0.20302  -0.60583 
 
 The following ModRedundant input section has been read:
 D       7       5      10      11 S  24 15.000                                
 

 GradGradGradGradGradGradGradGradGradGradGradGradGradGradGradGradGradGrad
 Berny optimization.
 Initialization pass.
                           ----------------------------
                           !    Initial Parameters    !
                           ! (Angstroms and Degrees)  !
 --------------------------                            --------------------------
 ! Name  Definition              Value          Derivative Info.                !
 --------------------------------------------------------------------------------
 ! R1    R(1,2)                  1.091          calculate D2E/DX2 analytically  !
 ! R2    R(1,3)                  1.0943         calculate D2E/DX2 analytically  !
 ! R3    R(1,4)                  1.0944         calculate D2E/DX2 analytically  !
 ! R4    R(1,5)                  1.5251         calculate D2E/DX2 analytically  !
 ! R5    R(5,6)                  1.102          calculate D2E/DX2 analytically  !
 ! R6    R(5,7)                  1.5322         calculate D2E/DX2 analytically  !
 ! R7    R(5,10)                 1.429          calculate D2E/DX2 analytically  !
 ! R8    R(7,8)                  1.1087         calculate D2E/DX2 analytically  !
 ! R9    R(7,9)                  1.1054         calculate D2E/DX2 analytically  !
 ! R10   R(7,12)                 1.3645         calculate D2E/DX2 analytically  !
 ! R11   R(10,11)                0.9619         calculate D2E/DX2 analytically  !
 ! A1    A(2,1,3)              108.7364         calculate D2E/DX2 analytically  !
 ! A2    A(2,1,4)              108.86           calculate D2E/DX2 analytically  !
 ! A3    A(2,1,5)              109.621          calculate D2E/DX2 analytically  !
 ! A4    A(3,1,4)              107.5926         calculate D2E/DX2 analytically  !
 ! A5    A(3,1,5)              111.2906         calculate D2E/DX2 analytically  !
 ! A6    A(4,1,5)              110.6723         calculate D2E/DX2 analytically  !
 ! A7    A(1,5,6)              109.7934         calculate D2E/DX2 analytically  !
 ! A8    A(1,5,7)              112.4337         calculate D2E/DX2 analytically  !
 ! A9    A(1,5,10)             111.7807         calculate D2E/DX2 analytically  !
 ! A10   A(6,5,7)              107.4031         calculate D2E/DX2 analytically  !
 ! A11   A(6,5,10)             109.8381         calculate D2E/DX2 analytically  !
 ! A12   A(7,5,10)             105.4189         calculate D2E/DX2 analytically  !
 ! A13   A(5,7,8)              110.4941         calculate D2E/DX2 analytically  !
 ! A14   A(5,7,9)              109.6933         calculate D2E/DX2 analytically  !
 ! A15   A(5,7,12)             116.0403         calculate D2E/DX2 analytically  !
 ! A16   A(8,7,9)              104.2945         calculate D2E/DX2 analytically  !
 ! A17   A(8,7,12)             106.6153         calculate D2E/DX2 analytically  !
 ! A18   A(9,7,12)             109.0222         calculate D2E/DX2 analytically  !
 ! A19   A(5,10,11)            108.1833         calculate D2E/DX2 analytically  !
 ! D1    D(2,1,5,6)            177.0639         calculate D2E/DX2 analytically  !
 ! D2    D(2,1,5,7)             57.56           calculate D2E/DX2 analytically  !
 ! D3    D(2,1,5,10)           -60.7815         calculate D2E/DX2 analytically  !
 ! D4    D(3,1,5,6)             56.7379         calculate D2E/DX2 analytically  !
 ! D5    D(3,1,5,7)            -62.766          calculate D2E/DX2 analytically  !
 ! D6    D(3,1,5,10)           178.8925         calculate D2E/DX2 analytically  !
 ! D7    D(4,1,5,6)            -62.8492         calculate D2E/DX2 analytically  !
 ! D8    D(4,1,5,7)            177.6469         calculate D2E/DX2 analytically  !
 ! D9    D(4,1,5,10)            59.3054         calculate D2E/DX2 analytically  !
 ! D10   D(1,5,7,8)             73.9319         calculate D2E/DX2 analytically  !
 ! D11   D(1,5,7,9)           -171.628          calculate D2E/DX2 analytically  !
 ! D12   D(1,5,7,12)           -47.56           calculate D2E/DX2 analytically  !
 ! D13   D(6,5,7,8)            -46.9543         calculate D2E/DX2 analytically  !
 ! D14   D(6,5,7,9)             67.4858         calculate D2E/DX2 analytically  !
 ! D15   D(6,5,7,12)          -168.4463         calculate D2E/DX2 analytically  !
 ! D16   D(10,5,7,8)          -164.043          calculate D2E/DX2 analytically  !
 ! D17   D(10,5,7,9)           -49.6029         calculate D2E/DX2 analytically  !
 ! D18   D(10,5,7,12)           74.465          calculate D2E/DX2 analytically  !
 ! D19   D(1,5,10,11)          -52.3729         calculate D2E/DX2 analytically  !
 ! D20   D(6,5,10,11)           69.7561         calculate D2E/DX2 analytically  !
 ! D21   D(7,5,10,11)         -174.8186         Scan                            !
 --------------------------------------------------------------------------------
 Trust Radius=3.00D-01 FncErr=1.00D-07 GrdErr=1.00D-06 EigMax=2.50D+02 EigMin=1.00D-04
 Number of optimizations in scan=  25
 Number of steps in this run=    100 maximum allowed number of steps=    100.
 GradGradGradGradGradGradGradGradGradGradGradGradGradGradGradGradGradGrad

                          Input orientation:                          
 ---------------------------------------------------------------------
 Center     Atomic      Atomic             Coordinates (Angstroms)
 Number     Number       Type             X           Y           Z
 ---------------------------------------------------------------------
      1          6           0       -1.001624    1.218490   -0.106671
      2          1           0       -0.583233    1.370871   -1.102686
      3          1           0       -0.707391    2.058155    0.530419
      4          1           0       -2.093731    1.223564   -0.177138
      5          6           0       -0.504847   -0.107328    0.460131
      6          1           0       -0.883316   -0.239554    1.486633
      7          6           0        1.024324   -0.180238    0.522568
      8          1           0        1.409725    0.452147    1.347685
      9          1           0        1.337584   -1.204739    0.794722
     10          8           0       -0.905173   -1.213839   -0.350610
     11          1           0       -1.856219   -1.159472   -0.484280
     12          8           0        1.688856    0.203024   -0.605831
 ---------------------------------------------------------------------
                    Distance matrix (angstroms):
                    1          2          3          4          5
     1  C    0.000000
     2  H    1.091016   0.000000
     3  H    1.094301   1.776177   0.000000
     4  H    1.094390   1.777623   1.766102   0.000000
     5  C    1.525072   2.152583   2.176070   2.168395   0.000000
     6  H    2.162986   3.063999   2.494947   2.524669   1.102011
     7  C    2.541033   2.762540   2.830071   3.490346   1.532181
     8  H    2.918396   3.289415   2.780174   3.897996   2.183197
     9  H    3.486609   3.731416   3.859826   4.314521   2.170441
    10  O    2.446433   2.711086   3.394300   2.717296   1.428961
    11  H    2.554922   2.899234   3.564063   2.414458   1.955793
    12  O    2.918735   2.602522   3.236445   3.941224   2.458643
                    6          7          8          9         10
     6  H    0.000000
     7  C    2.138231   0.000000
     8  H    2.399124   1.108721   0.000000
     9  H    2.518476   1.105351   1.748212   0.000000
    10  O    2.079705   2.356635   3.319408   2.518298   0.000000
    11  H    2.382706   3.204711   4.076739   3.440679   0.961931
    12  O    3.345198   1.364469   1.989020   2.016615   2.966753
                   11         12
    11  H    0.000000
    12  O    3.799832   0.000000
 Stoichiometry    C3H7O2(2)
 Framework group  C1[X(C3H7O2)]
 Deg. of freedom    30
 Full point group                 C1      NOp   1
 Largest Abelian subgroup         C1      NOp   1
 Largest concise Abelian subgroup C1      NOp   1
                         Standard orientation:                         
 ---------------------------------------------------------------------
 Center     Atomic      Atomic             Coordinates (Angstroms)
 Number     Number       Type             X           Y           Z
 ---------------------------------------------------------------------
      1          6           0       -1.001625    1.218490   -0.106671
      2          1           0       -0.583234    1.370871   -1.102686
      3          1           0       -0.707392    2.058155    0.530419
      4          1           0       -2.093732    1.223563   -0.177138
      5          6           0       -0.504847   -0.107328    0.460131
      6          1           0       -0.883316   -0.239554    1.486633
      7          6           0        1.024324   -0.180237    0.522568
      8          1           0        1.409725    0.452148    1.347685
      9          1           0        1.337585   -1.204738    0.794722
     10          8           0       -0.905172   -1.213839   -0.350610
     11          1           0       -1.856218   -1.159473   -0.484280
     12          8           0        1.688856    0.203025   -0.605831
 ---------------------------------------------------------------------
 Rotational constants (GHZ):           6.9178404           4.2107671           3.3036424
 Standard basis: 6-311G(2d,d,p) (5D, 7F)
 There are   137 symmetry adapted cartesian basis functions of A   symmetry.
 There are   132 symmetry adapted basis functions of A   symmetry.
   132 basis functions,   216 primitive gaussians,   137 cartesian basis functions
    21 alpha electrons       20 beta electrons
       nuclear repulsion energy       185.6016144145 Hartrees.
 NAtoms=   12 NActive=   12 NUniq=   12 SFac= 1.00D+00 NAtFMM=   60 NAOKFM=F Big=F
 Integral buffers will be    131072 words long.
 Raffenetti 2 integral format.
 Two-electron integral symmetry is turned on.
 One-electron integrals computed using PRISM.
 NBasis=   132 RedAO= T EigKep=  2.29D-03  NBF=   132
 NBsUse=   132 1.00D-06 EigRej= -1.00D+00 NBFU=   132
 ExpMin= 1.03D-01 ExpMax= 8.59D+03 ExpMxC= 1.30D+03 IAcc=3 IRadAn=         5 AccDes= 0.00D+00
 Harris functional with IExCor=  402 and IRadAn=       5 diagonalized for initial guess.
 HarFok:  IExCor=  402 AccDes= 0.00D+00 IRadAn=         5 IDoV= 1 UseB2=F ITyADJ=14
 ICtDFT=  3500011 ScaDFX=  1.000000  1.000000  1.000000  1.000000
 FoFCou: FMM=F IPFlag=           0 FMFlag=      100000 FMFlg1=           0
         NFxFlg=           0 DoJE=T BraDBF=F KetDBF=T FulRan=T
         wScrn=  0.000000 ICntrl=       500 IOpCl=  0 I1Cent=   200000004 NGrid=           0
         NMat0=    1 NMatS0=      1 NMatT0=    0 NMatD0=    1 NMtDS0=    0 NMtDT0=    0
 Petite list used in FoFCou.
 Initial guess <Sx>= 0.0000 <Sy>= 0.0000 <Sz>= 0.5000 <S**2>= 0.7500 S= 0.5000
 Keep R1 and R2 ints in memory in canonical form, NReq=78377335.
 Gradient too large for Newton-Raphson -- use scaled steepest descent instead.
     Minimum is close to point  3 DX=  2.40D-03 DF= -5.36D-06 DXR=  5.96D-03 DFR=  3.56D-05 which will be used.
 Gradient too large for Newton-Raphson -- use scaled steepest descent instead.
     Accept linear search using points  2 and  3.
 Gradient too large for Newton-Raphson -- use scaled steepest descent instead.
 Gradient too large for Newton-Raphson -- use scaled steepest descent instead.
     Accept linear search using points  1 and  2.
 Gradient too large for Newton-Raphson -- use scaled steepest descent instead.
 LinEq1:  Iter=  0 NonCon=     1 RMS=6.86D-05 Max=1.98D-03 NDo=     1
 AX will form     1 AO Fock derivatives at one time.
 LinEq1:  Iter=  1 NonCon=     1 RMS=7.42D-05 Max=2.84D-03 NDo=     1
 LinEq1:  Iter=  2 NonCon=     1 RMS=3.52D-05 Max=1.49D-03 NDo=     1
 LinEq1:  Iter=  3 NonCon=     1 RMS=1.60D-05 Max=3.57D-04 NDo=     1
 LinEq1:  Iter=  4 NonCon=     1 RMS=9.72D-06 Max=1.47D-04 NDo=     1
 LinEq1:  Iter=  5 NonCon=     1 RMS=2.38D-06 Max=2.36D-05 NDo=     1
 LinEq1:  Iter=  6 NonCon=     1 RMS=1.08D-06 Max=2.25D-05 NDo=     1
 LinEq1:  Iter=  7 NonCon=     1 RMS=6.85D-07 Max=1.17D-05 NDo=     1
 LinEq1:  Iter=  8 NonCon=     1 RMS=3.60D-07 Max=7.08D-06 NDo=     1
 LinEq1:  Iter=  9 NonCon=     1 RMS=2.04D-07 Max=4.06D-06 NDo=     1
 LinEq1:  Iter= 10 NonCon=     1 RMS=9.27D-08 Max=2.13D-06 NDo=     1
 LinEq1:  Iter= 11 NonCon=     1 RMS=3.24D-08 Max=6.70D-07 NDo=     1
 LinEq1:  Iter= 12 NonCon=     1 RMS=1.40D-08 Max=1.43D-07 NDo=     1
 LinEq1:  Iter= 13 NonCon=     1 RMS=6.51D-09 Max=9.23D-08 NDo=     1
 LinEq1:  Iter= 14 NonCon=     0 RMS=2.06D-09 Max=2.34D-08 NDo=     1
 Linear equations converged to 6.761D-09 6.761D-08 after    14 iterations.
     Minimum is close to point  2 DX=  1.13D-03 DF= -1.88D-11 DXR=  1.13D-03 DFR=  1.28D-06 which will be used.
 LinEq1:  Iter=  0 NonCon=     1 RMS=8.14D-07 Max=1.35D-05 NDo=     1
 LinEq1:  Iter=  1 NonCon=     1 RMS=5.19D-07 Max=6.58D-06 NDo=     1
 LinEq1:  Iter=  2 NonCon=     1 RMS=1.56D-07 Max=3.40D-06 NDo=     1
 LinEq1:  Iter=  3 NonCon=     1 RMS=1.41D-07 Max=5.63D-06 NDo=     1
 LinEq1:  Iter=  4 NonCon=     1 RMS=1.20D-07 Max=5.12D-06 NDo=     1
 LinEq1:  Iter=  5 NonCon=     1 RMS=5.33D-08 Max=1.06D-06 NDo=     1
 LinEq1:  Iter=  6 NonCon=     1 RMS=1.66D-08 Max=2.43D-07 NDo=     1
 LinEq1:  Iter=  7 NonCon=     1 RMS=9.36D-09 Max=1.79D-07 NDo=     1
 LinEq1:  Iter=  8 NonCon=     1 RMS=6.84D-09 Max=1.56D-07 NDo=     1
 LinEq1:  Iter=  9 NonCon=     1 RMS=2.51D-09 Max=5.35D-08 NDo=     1
 LinEq1:  Iter= 10 NonCon=     1 RMS=1.51D-09 Max=3.22D-08 NDo=     1
 LinEq1:  Iter= 11 NonCon=     1 RMS=5.53D-10 Max=9.88D-09 NDo=     1
 LinEq1:  Iter= 12 NonCon=     0 RMS=1.68D-10 Max=1.81D-09 NDo=     1
 Linear equations converged to 7.548D-10 7.548D-09 after    12 iterations.
 SCF Done:  E(UB3LYP) =  -268.977445191     a.u. after    8 cycles
            Convg  =    0.9389D-08                    45 Fock formations.
              S**2 =  0.7532                  -V/T =  2.0033
 <Sx>= 0.0000 <Sy>= 0.0000 <Sz>= 0.5000 <S**2>= 0.7532 S= 0.5016
 <L.S>=  0.00000000000    
 Annihilation of the first spin contaminant:
 S**2 before annihilation     0.7532,   after     0.7500
 DoSCS=F DFT=T ScalE2(SS,OS)=  1.000000  1.000000
 Range of M.O.s used for correlation:     1   132
 NBasis=   132 NAE=    21 NBE=    20 NFC=     0 NFV=     0
 NROrb=    132 NOA=    21 NOB=    20 NVA=   111 NVB=   112
 Symmetrizing basis deriv contribution to polar:
 IMax=3 JMax=2 DiffMx= 0.00D+00
 G2DrvN: will do    13 centers at a time, making    1 passes.
 Calling FoFCou, ICntrl=  3107 FMM=F I1Cent=   0 AccDes= 0.00D+00.
 End of G2Drv F.D. properties file   721 does not exist.
 End of G2Drv F.D. properties file   722 does not exist.
 End of G2Drv F.D. properties file   788 does not exist.
          IDoAtm=111111111111
          Differentiating once with respect to nuclear coordinates.
 Keep R1 and R2 ints in memory in canonical form, NReq=78382142.
          There are    39 degrees of freedom in the 1st order CPHF.  IDoFFX=6 NUNeed=     0.
     33 vectors produced by pass  0 Test12= 1.17D-14 2.56D-09 XBig12= 3.14D-01 3.38D-01.
 AX will form    33 AO Fock derivatives at one time.
     33 vectors produced by pass  1 Test12= 1.17D-14 2.56D-09 XBig12= 8.42D-03 3.83D-02.
     33 vectors produced by pass  2 Test12= 1.17D-14 2.56D-09 XBig12= 8.91D-05 2.20D-03.
     33 vectors produced by pass  3 Test12= 1.17D-14 2.56D-09 XBig12= 1.11D-06 1.84D-04.
     33 vectors produced by pass  4 Test12= 1.17D-14 2.56D-09 XBig12= 4.71D-09 9.53D-06.
     33 vectors produced by pass  5 Test12= 1.17D-14 2.56D-09 XBig12= 1.71D-11 4.40D-07.
     21 vectors produced by pass  6 Test12= 1.17D-14 2.56D-09 XBig12= 7.13D-14 3.86D-08.
 InvSVY:  IOpt=1 It=  1 EMax= 1.33D-15
 Solved reduced A of dimension   219 with    33 vectors.
 End of Minotr F.D. properties file   721 does not exist.
 End of Minotr F.D. properties file   722 does not exist.
 End of Minotr F.D. properties file   788 does not exist.

 **********************************************************************

            Population analysis using the SCF density.

 **********************************************************************

 Orbital symmetries:
 Alpha Orbitals:
       Occupied  (A) (A) (A) (A) (A) (A) (A) (A) (A) (A) (A) (A)
                 (A) (A) (A) (A) (A) (A) (A) (A) (A)
       Virtual   (A) (A) (A) (A) (A) (A) (A) (A) (A) (A) (A) (A)
                 (A) (A) (A) (A) (A) (A) (A) (A) (A) (A) (A) (A)
                 (A) (A) (A) (A) (A) (A) (A) (A) (A) (A) (A) (A)
                 (A) (A) (A) (A) (A) (A) (A) (A) (A) (A) (A) (A)
                 (A) (A) (A) (A) (A) (A) (A) (A) (A) (A) (A) (A)
                 (A) (A) (A) (A) (A) (A) (A) (A) (A) (A) (A) (A)
                 (A) (A) (A) (A) (A) (A) (A) (A) (A) (A) (A) (A)
                 (A) (A) (A) (A) (A) (A) (A) (A) (A) (A) (A) (A)
                 (A) (A) (A) (A) (A) (A) (A) (A) (A) (A) (A) (A)
                 (A) (A) (A)
 Beta  Orbitals:
       Occupied  (A) (A) (A) (A) (A) (A) (A) (A) (A) (A) (A) (A)
                 (A) (A) (A) (A) (A) (A) (A) (A)
       Virtual   (A) (A) (A) (A) (A) (A) (A) (A) (A) (A) (A) (A)
                 (A) (A) (A) (A) (A) (A) (A) (A) (A) (A) (A) (A)
                 (A) (A) (A) (A) (A) (A) (A) (A) (A) (A) (A) (A)
                 (A) (A) (A) (A) (A) (A) (A) (A) (A) (A) (A) (A)
                 (A) (A) (A) (A) (A) (A) (A) (A) (A) (A) (A) (A)
                 (A) (A) (A) (A) (A) (A) (A) (A) (A) (A) (A) (A)
                 (A) (A) (A) (A) (A) (A) (A) (A) (A) (A) (A) (A)
                 (A) (A) (A) (A) (A) (A) (A) (A) (A) (A) (A) (A)
                 (A) (A) (A) (A) (A) (A) (A) (A) (A) (A) (A) (A)
                 (A) (A) (A) (A)
 The electronic state is 2-A.
 Alpha  occ. eigenvalues --  -19.15994 -19.11762 -10.22860 -10.22821 -10.16685
 Alpha  occ. eigenvalues --   -1.03881  -1.01885  -0.77014  -0.69031  -0.59239
 Alpha  occ. eigenvalues --   -0.52670  -0.49059  -0.45797  -0.45288  -0.42425
 Alpha  occ. eigenvalues --   -0.38997  -0.38234  -0.34748  -0.32834  -0.28635
 Alpha  occ. eigenvalues --   -0.27937
 Alpha virt. eigenvalues --    0.02521   0.06241   0.08105   0.08979   0.09560
 Alpha virt. eigenvalues --    0.12296   0.13120   0.15953   0.19926   0.20846
 Alpha virt. eigenvalues --    0.23290   0.29412   0.32785   0.36948   0.38835
 Alpha virt. eigenvalues --    0.41749   0.43990   0.47035   0.48257   0.50314
 Alpha virt. eigenvalues --    0.52101   0.56644   0.56879   0.57632   0.58338
 Alpha virt. eigenvalues --    0.59275   0.62699   0.70656   0.74910   0.79270
 Alpha virt. eigenvalues --    0.83631   0.86492   0.87561   0.92756   0.95405
 Alpha virt. eigenvalues --    0.97942   1.03576   1.12062   1.19981   1.24219
 Alpha virt. eigenvalues --    1.29669   1.35900   1.37356   1.43159   1.45425
 Alpha virt. eigenvalues --    1.47311   1.49005   1.49997   1.52877   1.54542
 Alpha virt. eigenvalues --    1.56737   1.59606   1.62526   1.63837   1.68938
 Alpha virt. eigenvalues --    1.71452   1.72371   1.80422   1.89969   1.91472
 Alpha virt. eigenvalues --    1.94297   1.95529   2.06418   2.08631   2.10636
 Alpha virt. eigenvalues --    2.18819   2.23942   2.26320   2.35842   2.37307
 Alpha virt. eigenvalues --    2.37733   2.41536   2.46563   2.50334   2.53248
 Alpha virt. eigenvalues --    2.55208   2.59482   2.60111   2.64991   2.72482
 Alpha virt. eigenvalues --    2.76464   2.80680   2.85292   2.90507   2.94832
 Alpha virt. eigenvalues --    3.03683   3.10932   3.14206   3.20367   3.26224
 Alpha virt. eigenvalues --    3.28905   3.34516   3.72585   3.78660   3.79002
 Alpha virt. eigenvalues --    3.81018   3.88092   3.90876   4.07805   4.26807
 Alpha virt. eigenvalues --    4.81088   4.88844   4.89887   5.25980   5.43706
 Alpha virt. eigenvalues --    5.63824  23.73291  23.77297  23.91656  49.80392
 Alpha virt. eigenvalues --   49.89827
  Beta  occ. eigenvalues --  -19.13639 -19.11744 -10.22888 -10.22858 -10.16686
  Beta  occ. eigenvalues --   -1.02890  -0.97753  -0.76609  -0.68230  -0.58412
  Beta  occ. eigenvalues --   -0.52165  -0.47988  -0.44817  -0.42465  -0.41233
  Beta  occ. eigenvalues --   -0.38580  -0.38025  -0.34526  -0.28114  -0.26514
  Beta virt. eigenvalues --   -0.13807   0.02595   0.06357   0.08137   0.09262
  Beta virt. eigenvalues --    0.09671   0.12494   0.13183   0.16591   0.20109
  Beta virt. eigenvalues --    0.20976   0.23521   0.29661   0.33000   0.37396
  Beta virt. eigenvalues --    0.38997   0.41997   0.45090   0.47554   0.48611
  Beta virt. eigenvalues --    0.50524   0.52453   0.56685   0.57066   0.57841
  Beta virt. eigenvalues --    0.58426   0.59428   0.62814   0.70745   0.75987
  Beta virt. eigenvalues --    0.81246   0.84691   0.87313   0.87847   0.94598
  Beta virt. eigenvalues --    0.96079   0.98564   1.04185   1.12450   1.20334
  Beta virt. eigenvalues --    1.24306   1.30174   1.36059   1.37680   1.44108
  Beta virt. eigenvalues --    1.45670   1.47343   1.49562   1.50175   1.53088
  Beta virt. eigenvalues --    1.54692   1.57176   1.59980   1.63583   1.64400
  Beta virt. eigenvalues --    1.69293   1.71895   1.72784   1.80607   1.90434
  Beta virt. eigenvalues --    1.91643   1.94548   1.95801   2.06550   2.09238
  Beta virt. eigenvalues --    2.11109   2.19175   2.24222   2.26898   2.36278
  Beta virt. eigenvalues --    2.37814   2.38349   2.41779   2.46771   2.50477
  Beta virt. eigenvalues --    2.53406   2.55493   2.59747   2.60889   2.65486
  Beta virt. eigenvalues --    2.72991   2.79004   2.83675   2.91181   2.92865
  Beta virt. eigenvalues --    2.96322   3.04500   3.11200   3.17286   3.22062
  Beta virt. eigenvalues --    3.27035   3.29464   3.34973   3.73546   3.78727
  Beta virt. eigenvalues --    3.79394   3.81034   3.89366   3.91723   4.07896
  Beta virt. eigenvalues --    4.26911   4.88113   4.91795   4.92382   5.26008
  Beta virt. eigenvalues --    5.45648   5.63869  23.73284  23.77239  23.91653
  Beta virt. eigenvalues --   49.82460  49.90185
          Condensed to atoms (all electrons):
               1          2          3          4          5          6
     1  C    4.946250   0.396216   0.373203   0.394115   0.334268  -0.047983
     2  H    0.396216   0.547316  -0.022640  -0.031394  -0.045585   0.012169
     3  H    0.373203  -0.022640   0.598643  -0.026104  -0.026528   0.000164
     4  H    0.394115  -0.031394  -0.026104   0.594296  -0.029422  -0.009163
     5  C    0.334268  -0.045585  -0.026528  -0.029422   5.064421   0.352535
     6  H   -0.047983   0.012169   0.000164  -0.009163   0.352535   0.671906
     7  C   -0.057029  -0.016007  -0.002381   0.008850   0.302305  -0.040301
     8  H   -0.003080   0.002188   0.001413  -0.000355  -0.052564   0.004761
     9  H    0.010420   0.000952  -0.000664  -0.000490  -0.062301  -0.001095
    10  O   -0.042865   0.007524   0.005105  -0.002543   0.258977  -0.031603
    11  H   -0.004379  -0.002002  -0.000270   0.006109  -0.036684  -0.006043
    12  O   -0.002713   0.020133  -0.000252  -0.000018  -0.071668   0.004933
               7          8          9         10         11         12
     1  C   -0.057029  -0.003080   0.010420  -0.042865  -0.004379  -0.002713
     2  H   -0.016007   0.002188   0.000952   0.007524  -0.002002   0.020133
     3  H   -0.002381   0.001413  -0.000664   0.005105  -0.000270  -0.000252
     4  H    0.008850  -0.000355  -0.000490  -0.002543   0.006109  -0.000018
     5  C    0.302305  -0.052564  -0.062301   0.258977  -0.036684  -0.071668
     6  H   -0.040301   0.004761  -0.001095  -0.031603  -0.006043   0.004933
     7  C    4.811383   0.369414   0.386422  -0.052903   0.008729   0.302841
     8  H    0.369414   0.586268  -0.018153   0.003897  -0.000770  -0.025234
     9  H    0.386422  -0.018153   0.564158   0.005874  -0.000856  -0.025784
    10  O   -0.052903   0.003897   0.005874   7.929759   0.310770   0.001360
    11  H    0.008729  -0.000770  -0.000856   0.310770   0.488536  -0.000462
    12  O    0.302841  -0.025234  -0.025784   0.001360  -0.000462   8.026350
          Atomic-Atomic Spin Densities.
               1          2          3          4          5          6
     1  C    0.006368   0.001224  -0.000385   0.000323  -0.003911   0.000387
     2  H    0.001224  -0.001297   0.000124  -0.000174   0.001417  -0.000241
     3  H   -0.000385   0.000124  -0.000154   0.000040   0.000010  -0.000016
     4  H    0.000323  -0.000174   0.000040  -0.000288  -0.000011  -0.000022
     5  C   -0.003911   0.001417   0.000010  -0.000011  -0.018647   0.003359
     6  H    0.000387  -0.000241  -0.000016  -0.000022   0.003359  -0.003789
     7  C   -0.001855  -0.000254   0.000190  -0.000045   0.021519  -0.000986
     8  H   -0.004867  -0.000173   0.000130  -0.000067   0.004963   0.000240
     9  H    0.001431  -0.000049   0.000001   0.000016   0.005841  -0.000518
    10  O   -0.001426   0.000000  -0.000011  -0.000038  -0.003147   0.000326
    11  H    0.000324   0.000097  -0.000003   0.000096   0.000184   0.000016
    12  O    0.002415  -0.001930   0.000032  -0.000006  -0.004634  -0.000270
               7          8          9         10         11         12
     1  C   -0.001855  -0.004867   0.001431  -0.001426   0.000324   0.002415
     2  H   -0.000254  -0.000173  -0.000049   0.000000   0.000097  -0.001930
     3  H    0.000190   0.000130   0.000001  -0.000011  -0.000003   0.000032
     4  H   -0.000045  -0.000067   0.000016  -0.000038   0.000096  -0.000006
     5  C    0.021519   0.004963   0.005841  -0.003147   0.000184  -0.004634
     6  H   -0.000986   0.000240  -0.000518   0.000326   0.000016  -0.000270
     7  C   -0.082966   0.009803   0.012693   0.000024  -0.000048  -0.029988
     8  H    0.009803   0.127643  -0.021213   0.000625  -0.000017  -0.020918
     9  H    0.012693  -0.021213   0.084826  -0.001805   0.000056  -0.012072
    10  O    0.000024   0.000625  -0.001805   0.011033  -0.000738   0.000563
    11  H   -0.000048  -0.000017   0.000056  -0.000738   0.000086   0.000008
    12  O   -0.029988  -0.020918  -0.012072   0.000563   0.000008   0.963912
 Mulliken charges and spin densities:
               1          2
     1  C   -0.296423   0.000027
     2  H    0.131131  -0.001258
     3  H    0.100311  -0.000041
     4  H    0.096120  -0.000175
     5  C    0.012247   0.006942
     6  H    0.089719  -0.001514
     7  C   -0.021324  -0.071913
     8  H    0.132215   0.096149
     9  H    0.141517   0.069206
    10  O   -0.393351   0.005406
    11  H    0.237322   0.000059
    12  O   -0.229486   0.897112
 Sum of Mulliken charges =   0.00000   1.00000
 Mulliken charges and spin densities with hydrogens summed into heavy atoms:
               1          2
     1  C    0.031140  -0.001448
     5  C    0.101967   0.005428
     7  C    0.252408   0.093442
    10  O   -0.156028   0.005466
    12  O   -0.229486   0.897112
 APT charges:
               1
     1  C   -0.977725
     2  H    0.254219
     3  H    0.339824
     4  H    0.411880
     5  C   -0.244217
     6  H    0.328082
     7  C   -0.689360
     8  H    0.377595
     9  H    0.378159
    10  O   -0.674695
    11  H    0.582803
    12  O   -0.086566
 Sum of APT charges =   0.00000
 APT charges with hydrogens summed into heavy atoms:
               1
     1  C    0.028199
     5  C    0.083865
     7  C    0.066394
    10  O   -0.091892
    12  O   -0.086566
 Electronic spatial extent (au):  <R**2>=            432.1959
 Charge=              0.0000 electrons
 Dipole moment (field-independent basis, Debye):
    X=             -1.8915    Y=              0.5958    Z=              2.0499  Tot=              2.8521
 Quadrupole moment (field-independent basis, Debye-Ang):
   XX=            -29.4087   YY=            -32.2609   ZZ=            -31.0648
   XY=              0.0062   XZ=              3.2261   YZ=              0.0781
 Traceless Quadrupole moment (field-independent basis, Debye-Ang):
   XX=              1.5028   YY=             -1.3494   ZZ=             -0.1534
   XY=              0.0062   XZ=              3.2261   YZ=              0.0781
 Octapole moment (field-independent basis, Debye-Ang**2):
  XXX=            -14.1621  YYY=             -1.9472  ZZZ=             -2.0935  XYY=              2.4329
  XXY=             -7.5292  XXZ=              0.8656  XZZ=              0.6342  YZZ=             -1.4249
  YYZ=              0.0279  XYZ=             -0.1389
 Hexadecapole moment (field-independent basis, Debye-Ang**3):
 XXXX=           -266.7585 YYYY=           -180.1854 ZZZZ=            -88.7268 XXXY=             17.3237
 XXXZ=             11.1412 YYYX=              7.2681 YYYZ=              2.3683 ZZZX=             -0.2802
 ZZZY=              1.7704 XXYY=            -68.6219 XXZZ=            -60.5518 YYZZ=            -43.3127
 XXYZ=              4.5287 YYXZ=              1.3993 ZZXY=              3.3692
 N-N= 1.856016144145D+02 E-N=-1.002016816050D+03  KE= 2.680848900653D+02
  Exact polarizability:   0.000   0.000   0.000   0.000   0.000   0.000
 Approx polarizability:  56.912   1.479  55.389  -1.446   0.073  59.461
                          Isotropic Fermi Contact Couplings
        Atom                 a.u.       MegaHertz       Gauss      10(-4) cm-1
     1  C(13)             -0.00107      -1.19741      -0.42726      -0.39941
     2  H(1)               0.00025       1.09963       0.39238       0.36680
     3  H(1)              -0.00002      -0.10031      -0.03579      -0.03346
     4  H(1)              -0.00008      -0.37621      -0.13424      -0.12549
     5  C(13)             -0.00269      -3.01859      -1.07711      -1.00689
     6  H(1)              -0.00037      -1.67031      -0.59601      -0.55716
     7  C(13)             -0.03339     -37.54220     -13.39599     -12.52273
     8  H(1)               0.04375     195.53673      69.77237      65.22403
     9  H(1)               0.03215     143.68744      51.27125      47.92897
    10  O(17)              0.00116      -0.70378      -0.25113      -0.23476
    11  H(1)              -0.00005      -0.20600      -0.07351      -0.06872
    12  O(17)              0.05362     -32.50321     -11.59795     -10.84190
 --------------------------------------------------------
       Center         ----  Spin Dipole Couplings  ----
                      3XX-RR        3YY-RR        3ZZ-RR
 --------------------------------------------------------
     1   Atom        0.007666     -0.003876     -0.003789
     2   Atom        0.008922     -0.003023     -0.005899
     3   Atom        0.003142     -0.000271     -0.002871
     4   Atom        0.003865     -0.001740     -0.002125
     5   Atom        0.009606     -0.006565     -0.003042
     6   Atom        0.004770     -0.003724     -0.001046
     7   Atom       -0.029798      0.019698      0.010100
     8   Atom       -0.008444     -0.013323      0.021767
     9   Atom       -0.008736      0.006484      0.002252
    10   Atom       -0.007987     -0.017798      0.025786
    11   Atom        0.005383     -0.002683     -0.002700
    12   Atom       -1.703670      2.640268     -0.936598
 --------------------------------------------------------
                        XY            XZ            YZ
 --------------------------------------------------------
     1   Atom       -0.004317     -0.001754      0.000464
     2   Atom       -0.007721      0.004066     -0.001778
     3   Atom       -0.005474     -0.002431      0.001740
     4   Atom       -0.001690     -0.000332      0.000144
     5   Atom        0.000722     -0.007288     -0.001031
     6   Atom        0.001068     -0.005115     -0.000235
     7   Atom        0.018518     -0.030963      0.007663
     8   Atom        0.004021     -0.000478      0.006513
     9   Atom       -0.001692     -0.002702     -0.018632
    10   Atom        0.004247      0.001566     -0.005338
    11   Atom        0.002149      0.000217     -0.000096
    12   Atom        0.608011      0.262361      1.942862
 --------------------------------------------------------


 ---------------------------------------------------------------------------------
              Anisotropic Spin Dipole Couplings in Principal Axis System
 ---------------------------------------------------------------------------------

       Atom             a.u.   MegaHertz   Gauss  10(-4) cm-1        Axes

              Baa    -0.0053    -0.714    -0.255    -0.238  0.3247  0.9419  0.0861
     1 C(13)  Bbb    -0.0040    -0.541    -0.193    -0.180  0.1017 -0.1253  0.9869
              Bcc     0.0094     1.255     0.448     0.419  0.9403 -0.3117 -0.1365
 
              Baa    -0.0071    -3.763    -1.343    -1.255 -0.4278 -0.4826  0.7642
     2 H(1)   Bbb    -0.0067    -3.554    -1.268    -1.185  0.2205  0.7642  0.6061
              Bcc     0.0137     7.317     2.611     2.441  0.8766 -0.4278  0.2205
 
              Baa    -0.0043    -2.294    -0.819    -0.765  0.6042  0.7945  0.0609
     3 H(1)   Bbb    -0.0037    -1.970    -0.703    -0.657  0.1760 -0.2076  0.9622
              Bcc     0.0080     4.264     1.521     1.422  0.7771 -0.5707 -0.2653
 
              Baa    -0.0022    -1.194    -0.426    -0.398  0.2106  0.8539 -0.4759
     4 H(1)   Bbb    -0.0021    -1.130    -0.403    -0.377  0.1747  0.4461  0.8778
              Bcc     0.0044     2.324     0.829     0.775  0.9618 -0.2680 -0.0552
 
              Baa    -0.0071    -0.959    -0.342    -0.320  0.2248  0.7729  0.5933
     5 C(13)  Bbb    -0.0058    -0.785    -0.280    -0.262  0.3545 -0.6321  0.6891
              Bcc     0.0130     1.743     0.622     0.582  0.9076  0.0554 -0.4161
 
              Baa    -0.0043    -2.277    -0.812    -0.759  0.4488 -0.5920  0.6694
     6 H(1)   Bbb    -0.0036    -1.906    -0.680    -0.636  0.2351  0.8010  0.5506
              Bcc     0.0078     4.183     1.492     1.395  0.8621  0.0898 -0.4987
 
              Baa    -0.0522    -7.006    -2.500    -2.337  0.8495 -0.2672  0.4550
     7 C(13)  Bbb     0.0239     3.202     1.143     1.068 -0.0642  0.8036  0.5918
              Bcc     0.0283     3.804     1.357     1.269 -0.5238 -0.5319  0.6654
 
              Baa    -0.0165    -8.813    -3.145    -2.940 -0.4478  0.8805 -0.1554
     8 H(1)   Bbb    -0.0064    -3.426    -1.223    -1.143  0.8941  0.4394 -0.0864
              Bcc     0.0229    12.239     4.367     4.083  0.0078  0.1776  0.9841
 
              Baa    -0.0158    -8.423    -3.005    -2.810  0.4075  0.6040  0.6849
     9 H(1)   Bbb    -0.0073    -3.918    -1.398    -1.307  0.9131 -0.2834 -0.2933
              Bcc     0.0231    12.340     4.403     4.116  0.0170  0.7449 -0.6670
 
              Baa    -0.0201     1.451     0.518     0.484 -0.3435  0.9314  0.1202
    10 O(17)  Bbb    -0.0064     0.464     0.165     0.155  0.9387  0.3446  0.0115
              Bcc     0.0265    -1.915    -0.683    -0.639  0.0307 -0.1168  0.9927
 
              Baa    -0.0033    -1.738    -0.620    -0.580 -0.2394  0.9370  0.2543
    11 H(1)   Bbb    -0.0027    -1.422    -0.508    -0.474  0.0412 -0.2519  0.9669
              Bcc     0.0059     3.161     1.128     1.054  0.9700  0.2420  0.0217
 
              Baa    -1.7919   129.659    46.266    43.250  0.6040 -0.3880  0.6961
    12 O(17)  Bbb    -1.7837   129.067    46.054    43.052  0.7872  0.1541 -0.5972
              Bcc     3.5756  -258.726   -92.320   -86.302  0.1245  0.9087  0.3985
 

 ---------------------------------------------------------------------------------

 Calling FoFJK, ICntrl=    100147 FMM=F ISym2X=0 I1Cent= 0 IOpClX= 1 NMat=1 NMatS=1 NMatT=0.
 ***** Axes restored to original set *****
 -------------------------------------------------------------------
 Center     Atomic                   Forces (Hartrees/Bohr)
 Number     Number              X              Y              Z
 -------------------------------------------------------------------
      1        6          -0.000000273   -0.000001213   -0.000000184
      2        1          -0.000000423    0.000000516    0.000000438
      3        1          -0.000000605   -0.000002021   -0.000000061
      4        1          -0.000000182   -0.000000091    0.000000838
      5        6           0.000002192   -0.000000579   -0.000000713
      6        1          -0.000000742   -0.000000696    0.000000319
      7        6           0.000000105   -0.000000378    0.000000112
      8        1           0.000001189    0.000000296   -0.000000155
      9        1           0.000000278    0.000001639   -0.000000882
     10        8          -0.000002032    0.000001517   -0.000000516
     11        1           0.000000928    0.000000503    0.000000274
     12        8          -0.000000434    0.000000505    0.000000530
 -------------------------------------------------------------------
 Cartesian Forces:  Max     0.000002192 RMS     0.000000883
 FormGI is forming the generalized inverse of G from B-inverse, IUseBI=4.

 GradGradGradGradGradGradGradGradGradGradGradGradGradGradGradGradGradGrad
 Berny optimization.
 Internal  Forces:  Max     0.000002441 RMS     0.000000874
 Search for a local minimum.
 Step number   1 out of a maximum of  100 on scan point     1 out of    25
 All quantities printed in internal units (Hartrees-Bohrs-Radians)
 Mixed Optimization -- En-DIIS/RFO-DIIS
 Second derivative matrix not updated -- analytic derivatives used.
 ITU=  0
     Eigenvalues ---    0.00245   0.00304   0.01707   0.03746   0.04215
     Eigenvalues ---    0.04415   0.04523   0.04964   0.06132   0.11446
     Eigenvalues ---    0.12154   0.12274   0.13101   0.14328   0.15733
     Eigenvalues ---    0.17472   0.18635   0.22774   0.26683   0.28571
     Eigenvalues ---    0.29849   0.30248   0.30495   0.33062   0.33512
     Eigenvalues ---    0.34410   0.36341   0.38733   0.528611000.00000
     Eigenvalues --- 1000.000001000.000001000.000001000.000001000.00000
     Eigenvalues --- 1000.000001000.000001000.000001000.000001000.00000
     Eigenvalues --- 1000.000001000.000001000.000001000.000001000.00000
     Eigenvalues --- 1000.000001000.000001000.000001000.000001000.00000
     Eigenvalues --- 1000.00000
 RFO step:  Lambda= 0.00000000D+00 EMin= 2.44859133D-03
 Linear search not attempted -- first point.
 Iteration  1 RMS(Cart)=  0.00001146 RMS(Int)=  0.00000000
 Iteration  2 RMS(Cart)=  0.00000000 RMS(Int)=  0.00000000
 Iteration  1 RMS(Cart)=  0.00000000 RMS(Int)=  0.00000000
 Variable       Old X    -DE/DX   Delta X   Delta X   Delta X     New X
                                 (Linear)    (Quad)   (Total)
    R1        2.06172  -0.00000   0.00000  -0.00000  -0.00000   2.06172
    R2        2.06793  -0.00000   0.00000  -0.00000  -0.00000   2.06792
    R3        2.06810  -0.00000   0.00000  -0.00000  -0.00000   2.06810
    R4        2.88197  -0.00000   0.00000  -0.00000  -0.00000   2.88196
    R5        2.08250   0.00000   0.00000   0.00000   0.00000   2.08250
    R6        2.89540   0.00000   0.00000  -0.00000  -0.00000   2.89540
    R7        2.70034  -0.00000   0.00000  -0.00000  -0.00000   2.70034
    R8        2.09518   0.00000   0.00000   0.00000   0.00000   2.09518
    R9        2.08881  -0.00000   0.00000  -0.00000  -0.00000   2.08881
   R10        2.57847  -0.00000   0.00000  -0.00000  -0.00000   2.57847
   R11        1.81779  -0.00000   0.00000  -0.00000  -0.00000   1.81779
    A1        1.89781   0.00000   0.00000   0.00000   0.00000   1.89781
    A2        1.89997  -0.00000   0.00000   0.00000   0.00000   1.89997
    A3        1.91325   0.00000   0.00000   0.00000   0.00000   1.91325
    A4        1.87784   0.00000   0.00000  -0.00000  -0.00000   1.87784
    A5        1.94239  -0.00000   0.00000  -0.00001  -0.00001   1.94238
    A6        1.93160   0.00000   0.00000   0.00000   0.00000   1.93160
    A7        1.91626   0.00000   0.00000  -0.00000  -0.00000   1.91625
    A8        1.96234  -0.00000   0.00000   0.00000   0.00000   1.96234
    A9        1.95094  -0.00000   0.00000  -0.00001  -0.00001   1.95093
   A10        1.87454  -0.00000   0.00000   0.00000   0.00000   1.87454
   A11        1.91704  -0.00000   0.00000  -0.00000  -0.00000   1.91703
   A12        1.83991   0.00000   0.00000   0.00001   0.00001   1.83992
   A13        1.92849   0.00000   0.00000   0.00000   0.00000   1.92849
   A14        1.91451   0.00000   0.00000   0.00001   0.00001   1.91452
   A15        2.02528  -0.00000   0.00000  -0.00000  -0.00000   2.02528
   A16        1.82028  -0.00000   0.00000  -0.00000  -0.00000   1.82028
   A17        1.86079  -0.00000   0.00000  -0.00001  -0.00001   1.86078
   A18        1.90280  -0.00000   0.00000   0.00000   0.00000   1.90280
   A19        1.88815  -0.00000   0.00000  -0.00001  -0.00001   1.88814
    D1        3.09035   0.00000   0.00000   0.00001   0.00001   3.09036
    D2        1.00461   0.00000   0.00000   0.00001   0.00001   1.00462
    D3       -1.06084  -0.00000   0.00000  -0.00000  -0.00000  -1.06084
    D4        0.99026   0.00000   0.00000   0.00001   0.00001   0.99028
    D5       -1.09547   0.00000   0.00000   0.00001   0.00001  -1.09546
    D6        3.12226  -0.00000   0.00000  -0.00000  -0.00000   3.12226
    D7       -1.09693   0.00000   0.00000   0.00002   0.00002  -1.09691
    D8        3.10052   0.00000   0.00000   0.00002   0.00002   3.10054
    D9        1.03507  -0.00000   0.00000   0.00001   0.00001   1.03508
   D10        1.29036   0.00000   0.00000  -0.00001  -0.00001   1.29034
   D11       -2.99547   0.00000   0.00000  -0.00001  -0.00001  -2.99548
   D12       -0.83008   0.00000   0.00000  -0.00000  -0.00000  -0.83008
   D13       -0.81951   0.00000   0.00000  -0.00001  -0.00001  -0.81952
   D14        1.17785   0.00000   0.00000  -0.00001  -0.00001   1.17784
   D15       -2.93994   0.00000   0.00000  -0.00000  -0.00000  -2.93995
   D16       -2.86309  -0.00000   0.00000  -0.00002  -0.00002  -2.86311
   D17       -0.86573  -0.00000   0.00000  -0.00002  -0.00002  -0.86575
   D18        1.29966  -0.00000   0.00000  -0.00001  -0.00001   1.29965
   D19       -0.91408   0.00000   0.00000   0.00000   0.00000  -0.91408
   D20        1.21747  -0.00000   0.00000  -0.00001  -0.00001   1.21746
   D21       -3.05116   0.00000   0.00000   0.00000   0.00000  -3.05116
         Item               Value     Threshold  Converged?
 Maximum Force            0.000002     0.000015     YES
 RMS     Force            0.000001     0.000010     YES
 Maximum Displacement     0.000044     0.000060     YES
 RMS     Displacement     0.000011     0.000040     YES
 Predicted change in Energy=-1.016652D-10
 Optimization completed.
    -- Stationary point found.
                           ----------------------------
                           !   Optimized Parameters   !
                           ! (Angstroms and Degrees)  !
 --------------------------                            --------------------------
 ! Name  Definition              Value          Derivative Info.                !
 --------------------------------------------------------------------------------
 ! R1    R(1,2)                  1.091          -DE/DX =    0.0                 !
 ! R2    R(1,3)                  1.0943         -DE/DX =    0.0                 !
 ! R3    R(1,4)                  1.0944         -DE/DX =    0.0                 !
 ! R4    R(1,5)                  1.5251         -DE/DX =    0.0                 !
 ! R5    R(5,6)                  1.102          -DE/DX =    0.0                 !
 ! R6    R(5,7)                  1.5322         -DE/DX =    0.0                 !
 ! R7    R(5,10)                 1.429          -DE/DX =    0.0                 !
 ! R8    R(7,8)                  1.1087         -DE/DX =    0.0                 !
 ! R9    R(7,9)                  1.1054         -DE/DX =    0.0                 !
 ! R10   R(7,12)                 1.3645         -DE/DX =    0.0                 !
 ! R11   R(10,11)                0.9619         -DE/DX =    0.0                 !
 ! A1    A(2,1,3)              108.7364         -DE/DX =    0.0                 !
 ! A2    A(2,1,4)              108.86           -DE/DX =    0.0                 !
 ! A3    A(2,1,5)              109.621          -DE/DX =    0.0                 !
 ! A4    A(3,1,4)              107.5926         -DE/DX =    0.0                 !
 ! A5    A(3,1,5)              111.2906         -DE/DX =    0.0                 !
 ! A6    A(4,1,5)              110.6723         -DE/DX =    0.0                 !
 ! A7    A(1,5,6)              109.7934         -DE/DX =    0.0                 !
 ! A8    A(1,5,7)              112.4337         -DE/DX =    0.0                 !
 ! A9    A(1,5,10)             111.7807         -DE/DX =    0.0                 !
 ! A10   A(6,5,7)              107.4031         -DE/DX =    0.0                 !
 ! A11   A(6,5,10)             109.8381         -DE/DX =    0.0                 !
 ! A12   A(7,5,10)             105.4189         -DE/DX =    0.0                 !
 ! A13   A(5,7,8)              110.4941         -DE/DX =    0.0                 !
 ! A14   A(5,7,9)              109.6933         -DE/DX =    0.0                 !
 ! A15   A(5,7,12)             116.0403         -DE/DX =    0.0                 !
 ! A16   A(8,7,9)              104.2945         -DE/DX =    0.0                 !
 ! A17   A(8,7,12)             106.6153         -DE/DX =    0.0                 !
 ! A18   A(9,7,12)             109.0222         -DE/DX =    0.0                 !
 ! A19   A(5,10,11)            108.1833         -DE/DX =    0.0                 !
 ! D1    D(2,1,5,6)            177.0639         -DE/DX =    0.0                 !
 ! D2    D(2,1,5,7)             57.56           -DE/DX =    0.0                 !
 ! D3    D(2,1,5,10)           -60.7815         -DE/DX =    0.0                 !
 ! D4    D(3,1,5,6)             56.7379         -DE/DX =    0.0                 !
 ! D5    D(3,1,5,7)            -62.766          -DE/DX =    0.0                 !
 ! D6    D(3,1,5,10)           178.8925         -DE/DX =    0.0                 !
 ! D7    D(4,1,5,6)            -62.8492         -DE/DX =    0.0                 !
 ! D8    D(4,1,5,7)            177.6469         -DE/DX =    0.0                 !
 ! D9    D(4,1,5,10)            59.3054         -DE/DX =    0.0                 !
 ! D10   D(1,5,7,8)             73.9319         -DE/DX =    0.0                 !
 ! D11   D(1,5,7,9)           -171.628          -DE/DX =    0.0                 !
 ! D12   D(1,5,7,12)           -47.56           -DE/DX =    0.0                 !
 ! D13   D(6,5,7,8)            -46.9543         -DE/DX =    0.0                 !
 ! D14   D(6,5,7,9)             67.4858         -DE/DX =    0.0                 !
 ! D15   D(6,5,7,12)          -168.4463         -DE/DX =    0.0                 !
 ! D16   D(10,5,7,8)          -164.043          -DE/DX =    0.0                 !
 ! D17   D(10,5,7,9)           -49.6029         -DE/DX =    0.0                 !
 ! D18   D(10,5,7,12)           74.465          -DE/DX =    0.0                 !
 ! D19   D(1,5,10,11)          -52.3729         -DE/DX =    0.0                 !
 ! D20   D(6,5,10,11)           69.7561         -DE/DX =    0.0                 !
 ! D21   D(7,5,10,11)         -174.8186         -DE/DX =    0.0                 !
 --------------------------------------------------------------------------------
 Iteration  1 RMS(Cart)=  0.02965273 RMS(Int)=  0.02679387
 Iteration  2 RMS(Cart)=  0.00921926 RMS(Int)=  0.02607905
 Iteration  3 RMS(Cart)=  0.00009157 RMS(Int)=  0.02607892
 Iteration  4 RMS(Cart)=  0.00000461 RMS(Int)=  0.02607892
 Iteration  5 RMS(Cart)=  0.00000015 RMS(Int)=  0.02607892
 Iteration  1 RMS(Cart)=  0.01963869 RMS(Int)=  0.01320145
 Iteration  2 RMS(Cart)=  0.00994861 RMS(Int)=  0.01475909
 Iteration  3 RMS(Cart)=  0.00503836 RMS(Int)=  0.01652571
 Iteration  4 RMS(Cart)=  0.00255171 RMS(Int)=  0.01759550
 Iteration  5 RMS(Cart)=  0.00129242 RMS(Int)=  0.01817339
 Iteration  6 RMS(Cart)=  0.00065463 RMS(Int)=  0.01847436
 Iteration  7 RMS(Cart)=  0.00033158 RMS(Int)=  0.01862880
 Iteration  8 RMS(Cart)=  0.00016796 RMS(Int)=  0.01870753
 Iteration  9 RMS(Cart)=  0.00008508 RMS(Int)=  0.01874754
 Iteration 10 RMS(Cart)=  0.00004309 RMS(Int)=  0.01876783
 Iteration 11 RMS(Cart)=  0.00002183 RMS(Int)=  0.01877812
 Iteration 12 RMS(Cart)=  0.00001106 RMS(Int)=  0.01878334
 Iteration 13 RMS(Cart)=  0.00000560 RMS(Int)=  0.01878598
 Iteration 14 RMS(Cart)=  0.00000284 RMS(Int)=  0.01878732
 Iteration 15 RMS(Cart)=  0.00000144 RMS(Int)=  0.01878799
 Iteration 16 RMS(Cart)=  0.00000073 RMS(Int)=  0.01878834
 GradGradGradGradGradGradGradGradGradGradGradGradGradGradGradGradGradGrad

                          Input orientation:                          
 ---------------------------------------------------------------------
 Center     Atomic      Atomic             Coordinates (Angstroms)
 Number     Number       Type             X           Y           Z
 ---------------------------------------------------------------------
      1          6           0       -0.951890    1.179799   -0.086037
      2          1           0       -0.499326    1.297935   -1.071812
      3          1           0       -0.635786    2.013836    0.547991
      4          1           0       -2.040299    1.235334   -0.187359
      5          6           0       -0.534425   -0.159789    0.512039
      6          1           0       -0.957060   -0.265992    1.524347
      7          6           0        0.998008   -0.145212    0.509472
      8          1           0        1.381381    0.520242    1.309226
      9          1           0        1.380543   -1.146345    0.780837
     10          8           0       -0.948062   -1.260116   -0.300444
     11          1           0       -1.859460   -1.106851   -0.571960
     12          8           0        1.591329    0.258239   -0.651356
 ---------------------------------------------------------------------
                    Distance matrix (angstroms):
                    1          2          3          4          5
     1  C    0.000000
     2  H    1.091111   0.000000
     3  H    1.094318   1.776203   0.000000
     4  H    1.094525   1.777857   1.766200   0.000000
     5  C    1.525276   2.152853   2.176284   2.168682   0.000000
     6  H    2.164180   3.065197   2.500821   2.521374   1.102119
     7  C    2.431539   2.612497   2.707813   3.409221   1.532504
     8  H    2.797486   3.132285   2.622835   3.802502   2.183635
     9  H    3.406268   3.597322   3.755868   4.279247   2.170863
    10  O    2.449320   2.709243   3.396486   2.726360   1.428966
    11  H    2.507702   2.807635   3.534170   2.380431   1.956451
    12  O    2.763480   2.372465   3.079058   3.789292   2.459078
                    6          7          8          9         10
     6  H    0.000000
     7  C    2.206094   0.000000
     8  H    2.476439   1.108788   0.000000
     9  H    2.606188   1.105550   1.748345   0.000000
    10  O    2.078033   2.384567   3.344699   2.569924   0.000000
    11  H    2.432257   3.203025   4.085260   3.511301   0.963254
    12  O    3.391576   1.364670   1.989122   2.017044   2.979437
                   11         12
    11  H    0.000000
    12  O    3.711835   0.000000
 Stoichiometry    C3H7O2(2)
 Framework group  C1[X(C3H7O2)]
 Deg. of freedom    30
 Full point group                 C1      NOp   1
 Largest Abelian subgroup         C1      NOp   1
 Largest concise Abelian subgroup C1      NOp   1
                         Standard orientation:                         
 ---------------------------------------------------------------------
 Center     Atomic      Atomic             Coordinates (Angstroms)
 Number     Number       Type             X           Y           Z
 ---------------------------------------------------------------------
      1          6           0       -0.769350    1.292846   -0.098183
      2          1           0       -0.279217    1.366163   -1.070252
      3          1           0       -0.368941    2.072584    0.556959
      4          1           0       -1.839224    1.485318   -0.225887
      5          6           0       -0.538361   -0.096014    0.488484
      6          1           0       -0.998037   -0.161576    1.488018
      7          6           0        0.983448   -0.273104    0.524623
      8          1           0        1.425103    0.328844    1.344385
      9          1           0        1.230772   -1.317619    0.789311
     10          8           0       -1.063893   -1.125439   -0.351780
     11          1           0       -1.941439   -0.855950   -0.643581
     12          8           0        1.653464    0.067922   -0.614282
 ---------------------------------------------------------------------
 Rotational constants (GHZ):           6.9394931           4.3202656           3.4051469
 Standard basis: 6-311G(2d,d,p) (5D, 7F)
 There are   137 symmetry adapted cartesian basis functions of A   symmetry.
 There are   132 symmetry adapted basis functions of A   symmetry.
   132 basis functions,   216 primitive gaussians,   137 cartesian basis functions
    21 alpha electrons       20 beta electrons
       nuclear repulsion energy       186.6576865762 Hartrees.
 NAtoms=   12 NActive=   12 NUniq=   12 SFac= 1.00D+00 NAtFMM=   60 NAOKFM=F Big=F
 Integral buffers will be    131072 words long.
 Raffenetti 2 integral format.
 Two-electron integral symmetry is turned on.
 One-electron integrals computed using PRISM.
 NBasis=   132 RedAO= T EigKep=  2.17D-03  NBF=   132
 NBsUse=   132 1.00D-06 EigRej= -1.00D+00 NBFU=   132
 Initial guess from the checkpoint file:  "/rc_scratch/jasm3285/Gau-68929.chk"
 B after Tr=    -0.000000   -0.000000    0.000000
         Rot=    0.998333   -0.005405    0.001945    0.057425 Ang=  -6.62 deg.
 Initial guess <Sx>= 0.0000 <Sy>= 0.0000 <Sz>= 0.5000 <S**2>= 0.7532 S= 0.5016
 ExpMin= 1.03D-01 ExpMax= 8.59D+03 ExpMxC= 1.30D+03 IAcc=2 IRadAn=         4 AccDes= 0.00D+00
 Harris functional with IExCor=  402 and IRadAn=       4 diagonalized for initial guess.
 HarFok:  IExCor=  402 AccDes= 0.00D+00 IRadAn=         4 IDoV= 1 UseB2=F ITyADJ=14
 ICtDFT=  3500011 ScaDFX=  1.000000  1.000000  1.000000  1.000000
 FoFCou: FMM=F IPFlag=           0 FMFlag=      100000 FMFlg1=           0
         NFxFlg=           0 DoJE=T BraDBF=F KetDBF=T FulRan=T
         wScrn=  0.000000 ICntrl=       500 IOpCl=  0 I1Cent=   200000004 NGrid=           0
         NMat0=    1 NMatS0=      1 NMatT0=    0 NMatD0=    1 NMtDS0=    0 NMtDT0=    0
 Petite list used in FoFCou.
 Keep R1 and R2 ints in memory in canonical form, NReq=78377335.
 Gradient too large for Newton-Raphson -- use scaled steepest descent instead.
     Minimum is close to point  4 DX=  6.42D-03 DF= -1.74D-07 DXR=  5.32D-03 DFR=  2.84D-05 which will be used.
 Gradient too large for Newton-Raphson -- use scaled steepest descent instead.
 Gradient too large for Newton-Raphson -- use scaled steepest descent instead.
     Minimum is close to point  3 DX=  7.70D-03 DF= -5.11D-07 DXR=  3.71D-02 DFR=  1.38D-03 which will be used.
 Gradient too large for Newton-Raphson -- use scaled steepest descent instead.
     Accept linear search using points  1 and  2.
 Gradient too large for Newton-Raphson -- use scaled steepest descent instead.
     Accept linear search using points  4 and  5.
 Gradient too large for Newton-Raphson -- use scaled steepest descent instead.
 Gradient too large for Newton-Raphson -- use scaled steepest descent instead.
 Gradient too large for Newton-Raphson -- use scaled steepest descent instead.
     Accept linear search using points  1 and  2.
 Gradient too large for Newton-Raphson -- use scaled steepest descent instead.
 Gradient too large for Newton-Raphson -- use scaled steepest descent instead.
 Gradient too large for Newton-Raphson -- use scaled steepest descent instead.
 Gradient too large for Newton-Raphson -- use scaled steepest descent instead.
 Gradient too large for Newton-Raphson -- use scaled steepest descent instead.
     Accept linear search using points  1 and  2.
 Gradient too large for Newton-Raphson -- use scaled steepest descent instead.
 Gradient too large for Newton-Raphson -- use scaled steepest descent instead.
 Gradient too large for Newton-Raphson -- use scaled steepest descent instead.
 Gradient too large for Newton-Raphson -- use scaled steepest descent instead.
 Gradient too large for Newton-Raphson -- use scaled steepest descent instead.
 Gradient too large for Newton-Raphson -- use scaled steepest descent instead.
 Gradient too large for Newton-Raphson -- use scaled steepest descent instead.
 Gradient too large for Newton-Raphson -- use scaled steepest descent instead.
 Gradient too large for Newton-Raphson -- use scaled steepest descent instead.
 Gradient too large for Newton-Raphson -- use scaled steepest descent instead.
 Gradient too large for Newton-Raphson -- use scaled steepest descent instead.
 Gradient too large for Newton-Raphson -- use scaled steepest descent instead.
 Gradient too large for Newton-Raphson -- use scaled steepest descent instead.
 Gradient too large for Newton-Raphson -- use scaled steepest descent instead.
 Gradient too large for Newton-Raphson -- use scaled steepest descent instead.
 Gradient too large for Newton-Raphson -- use scaled steepest descent instead.
 Gradient too large for Newton-Raphson -- use scaled steepest descent instead.
 Gradient too large for Newton-Raphson -- use scaled steepest descent instead.
 Gradient too large for Newton-Raphson -- use scaled steepest descent instead.
 Gradient too large for Newton-Raphson -- use scaled steepest descent instead.
 Gradient too large for Newton-Raphson -- use scaled steepest descent instead.
 Gradient too large for Newton-Raphson -- use scaled steepest descent instead.
 LinEq1:  Iter=  0 NonCon=     1 RMS=1.64D-04 Max=5.28D-03 NDo=     1
 AX will form     1 AO Fock derivatives at one time.
 LinEq1:  Iter=  1 NonCon=     1 RMS=5.98D-05 Max=3.20D-03 NDo=     1
 LinEq1:  Iter=  2 NonCon=     1 RMS=1.49D-05 Max=3.49D-04 NDo=     1
 LinEq1:  Iter=  3 NonCon=     1 RMS=1.01D-05 Max=2.95D-04 NDo=     1
 LinEq1:  Iter=  4 NonCon=     1 RMS=5.33D-06 Max=1.43D-04 NDo=     1
 LinEq1:  Iter=  5 NonCon=     1 RMS=2.91D-06 Max=3.62D-05 NDo=     1
 LinEq1:  Iter=  6 NonCon=     1 RMS=1.02D-06 Max=2.94D-05 NDo=     1
 LinEq1:  Iter=  7 NonCon=     1 RMS=3.95D-07 Max=9.93D-06 NDo=     1
 LinEq1:  Iter=  8 NonCon=     1 RMS=2.14D-07 Max=4.93D-06 NDo=     1
 LinEq1:  Iter=  9 NonCon=     1 RMS=1.41D-07 Max=2.45D-06 NDo=     1
 LinEq1:  Iter= 10 NonCon=     1 RMS=5.01D-08 Max=5.82D-07 NDo=     1
 LinEq1:  Iter= 11 NonCon=     1 RMS=2.80D-08 Max=3.01D-07 NDo=     1
 LinEq1:  Iter= 12 NonCon=     1 RMS=1.02D-08 Max=1.23D-07 NDo=     1
 LinEq1:  Iter= 13 NonCon=     0 RMS=3.16D-09 Max=2.63D-08 NDo=     1
 Linear equations converged to 6.761D-09 6.761D-08 after    13 iterations.
     Accept linear search using points  1 and  2.
     Minimum is close to point  2 DX= -1.26D-02 DF= -2.18D-08 DXR=  1.28D-02 DFR=  1.65D-04 which will be used.
 LinEq1:  Iter=  0 NonCon=     1 RMS=8.51D-06 Max=1.30D-04 NDo=     1
 LinEq1:  Iter=  1 NonCon=     1 RMS=5.78D-06 Max=9.98D-05 NDo=     1
 LinEq1:  Iter=  2 NonCon=     1 RMS=2.26D-06 Max=9.56D-05 NDo=     1
 LinEq1:  Iter=  3 NonCon=     1 RMS=2.04D-06 Max=7.22D-05 NDo=     1
 LinEq1:  Iter=  4 NonCon=     1 RMS=1.47D-06 Max=3.26D-05 NDo=     1
 LinEq1:  Iter=  5 NonCon=     1 RMS=5.99D-07 Max=1.16D-05 NDo=     1
 LinEq1:  Iter=  6 NonCon=     1 RMS=1.69D-07 Max=1.89D-06 NDo=     1
 LinEq1:  Iter=  7 NonCon=     1 RMS=6.22D-08 Max=6.55D-07 NDo=     1
 LinEq1:  Iter=  8 NonCon=     1 RMS=4.02D-08 Max=1.15D-06 NDo=     1
 LinEq1:  Iter=  9 NonCon=     1 RMS=1.54D-08 Max=1.35D-07 NDo=     1
 LinEq1:  Iter= 10 NonCon=     1 RMS=1.05D-08 Max=1.83D-07 NDo=     1
 LinEq1:  Iter= 11 NonCon=     0 RMS=4.51D-09 Max=3.62D-08 NDo=     1
 Linear equations converged to 6.761D-09 6.761D-08 after    11 iterations.
     Minimum is close to point  2 DX=  6.73D-04 DF= -1.14D-13 DXR=  6.72D-04 DFR=  2.99D-07 which will be used.
 SCF Done:  E(UB3LYP) =  -268.974457404     a.u. after   38 cycles
            Convg  =    0.3294D-06                   133 Fock formations.
              S**2 =  0.7532                  -V/T =  2.0033
 <Sx>= 0.0000 <Sy>= 0.0000 <Sz>= 0.5000 <S**2>= 0.7532 S= 0.5016
 <L.S>=  0.00000000000    
 Annihilation of the first spin contaminant:
 S**2 before annihilation     0.7532,   after     0.7500
 Calling FoFJK, ICntrl=      2127 FMM=F ISym2X=0 I1Cent= 0 IOpClX= 1 NMat=1 NMatS=1 NMatT=0.
 ***** Axes restored to original set *****
 -------------------------------------------------------------------
 Center     Atomic                   Forces (Hartrees/Bohr)
 Number     Number              X              Y              Z
 -------------------------------------------------------------------
      1        6          -0.012836962    0.001514678   -0.000677357
      2        1          -0.000588075   -0.000305590    0.000833593
      3        1          -0.000292588   -0.000281201    0.000150223
      4        1          -0.000795104    0.001437064   -0.000207190
      5        6           0.000549296    0.011923622   -0.011693814
      6        1           0.006608054   -0.000465157    0.000385768
      7        6           0.002728164   -0.010232121    0.008904215
      8        1          -0.000473406   -0.001102515    0.000550336
      9        1           0.002776208    0.000065643   -0.000860783
     10        8           0.001329410    0.000719465    0.000625649
     11        1           0.001366582   -0.000307890    0.000982565
     12        8          -0.000371580   -0.002965998    0.001006795
 -------------------------------------------------------------------
 Cartesian Forces:  Max     0.012836962 RMS     0.004447303

 GradGradGradGradGradGradGradGradGradGradGradGradGradGradGradGradGradGrad
 Berny optimization.
 FormGI is forming the generalized inverse of G from B-inverse, IUseBI=4.
 Internal  Forces:  Max     0.022826159 RMS     0.004678289
 Search for a local minimum.
 Step number   1 out of a maximum of  100 on scan point     2 out of    25
 All quantities printed in internal units (Hartrees-Bohrs-Radians)
 Mixed Optimization -- RFO/linear search
 Second derivative matrix not updated -- first step.
 ITU=  0
     Eigenvalues ---    0.00245   0.00304   0.01707   0.03737   0.04215
     Eigenvalues ---    0.04414   0.04523   0.04911   0.06136   0.11428
     Eigenvalues ---    0.12159   0.12290   0.13102   0.14323   0.15729
     Eigenvalues ---    0.17507   0.18589   0.22759   0.26678   0.28569
     Eigenvalues ---    0.29848   0.30248   0.30493   0.33062   0.33511
     Eigenvalues ---    0.34410   0.36339   0.38733   0.528601000.00000
     Eigenvalues --- 1000.000001000.000001000.000001000.000001000.00000
     Eigenvalues --- 1000.000001000.000001000.000001000.000001000.00000
     Eigenvalues --- 1000.000001000.000001000.000001000.000001000.00000
     Eigenvalues --- 1000.000001000.000001000.000001000.000001000.00000
     Eigenvalues --- 1000.00000
 RFO step:  Lambda=-6.12288360D-03 EMin= 2.44855027D-03
 Linear search not attempted -- first point.
 Iteration  1 RMS(Cart)=  0.08425432 RMS(Int)=  0.00238418
 Iteration  2 RMS(Cart)=  0.00308507 RMS(Int)=  0.00084127
 Iteration  3 RMS(Cart)=  0.00000258 RMS(Int)=  0.00084126
 Iteration  4 RMS(Cart)=  0.00000000 RMS(Int)=  0.00084126
 Iteration  1 RMS(Cart)=  0.00002295 RMS(Int)=  0.00001573
 Iteration  2 RMS(Cart)=  0.00001163 RMS(Int)=  0.00001758
 Iteration  3 RMS(Cart)=  0.00000589 RMS(Int)=  0.00001969
 Iteration  4 RMS(Cart)=  0.00000298 RMS(Int)=  0.00002097
 Iteration  5 RMS(Cart)=  0.00000151 RMS(Int)=  0.00002166
 Iteration  6 RMS(Cart)=  0.00000077 RMS(Int)=  0.00002202
 Variable       Old X    -DE/DX   Delta X   Delta X   Delta X     New X
                                 (Linear)    (Quad)   (Total)
    R1        2.06190  -0.00103   0.00000   0.00023   0.00023   2.06213
    R2        2.06796  -0.00021   0.00000  -0.00072  -0.00072   2.06724
    R3        2.06835   0.00088   0.00000   0.00090   0.00090   2.06925
    R4        2.88235   0.00601   0.00000   0.00422   0.00422   2.88657
    R5        2.08270  -0.00213   0.00000   0.00002   0.00002   2.08273
    R6        2.89601   0.00451   0.00000   0.00399   0.00399   2.90000
    R7        2.70035  -0.00201   0.00000   0.00005   0.00005   2.70040
    R8        2.09531  -0.00043   0.00000  -0.00183  -0.00183   2.09347
    R9        2.08919   0.00069   0.00000   0.00204   0.00204   2.09122
   R10        2.57885  -0.00189   0.00000  -0.00177  -0.00177   2.57708
   R11        1.82029  -0.00162   0.00000  -0.00303  -0.00303   1.81726
    A1        1.89771   0.00034   0.00000   0.00057   0.00056   1.89826
    A2        1.90004  -0.00061   0.00000  -0.00041  -0.00040   1.89964
    A3        1.91328  -0.00033   0.00000   0.00440   0.00439   1.91767
    A4        1.87780  -0.00084   0.00000  -0.00286  -0.00286   1.87494
    A5        1.94242  -0.00060   0.00000   0.00124   0.00123   1.94365
    A6        1.93160   0.00201   0.00000  -0.00305  -0.00305   1.92856
    A7        1.91754  -0.00495   0.00000  -0.01858  -0.01592   1.90161
    A8        1.83866   0.02283   0.00000   0.12704   0.12762   1.96629
    A9        1.95422  -0.00514   0.00000  -0.00818  -0.00916   1.94507
   A10        1.96699  -0.00991   0.00000  -0.08092  -0.08137   1.88563
   A11        1.91457   0.00536   0.00000   0.00484   0.00269   1.91726
   A12        1.87111  -0.00810   0.00000  -0.02207  -0.02461   1.84650
   A13        1.92863  -0.00067   0.00000   0.00842   0.00829   1.93692
   A14        1.91450   0.00326   0.00000  -0.00758  -0.00761   1.90688
   A15        2.02527   0.00020   0.00000   0.00464   0.00446   2.02973
   A16        1.82017  -0.00124   0.00000  -0.00565  -0.00562   1.81455
   A17        1.86063   0.00110   0.00000   0.02175   0.02151   1.88214
   A18        1.90294  -0.00292   0.00000  -0.02224  -0.02232   1.88063
   A19        1.88771  -0.00041   0.00000   0.00225   0.00225   1.88995
    D1        3.10285  -0.00037   0.00000   0.00110   0.00166   3.10451
    D2        0.97971   0.00061   0.00000   0.03250   0.03251   1.01222
    D3       -1.04836  -0.00050   0.00000  -0.01136  -0.01192  -1.06028
    D4        1.00285  -0.00019   0.00000  -0.00330  -0.00275   1.00011
    D5       -1.12029   0.00079   0.00000   0.02810   0.02810  -1.09219
    D6        3.13483  -0.00032   0.00000  -0.01577  -0.01633   3.11850
    D7       -1.08431  -0.00007   0.00000   0.00150   0.00206  -1.08225
    D8        3.07574   0.00091   0.00000   0.03291   0.03291   3.10864
    D9        1.04767  -0.00020   0.00000  -0.01096  -0.01153   1.03615
   D10        1.29917   0.00060   0.00000  -0.00623  -0.00726   1.29191
   D11       -2.98672   0.00060   0.00000  -0.01266  -0.01379  -3.00051
   D12       -0.82115  -0.00048   0.00000  -0.04545  -0.04659  -0.86774
   D13       -0.79154  -0.00246   0.00000  -0.01983  -0.01806  -0.80959
   D14        1.20576  -0.00246   0.00000  -0.02626  -0.02458   1.18118
   D15       -2.91186  -0.00354   0.00000  -0.05905  -0.05738  -2.96924
   D16       -2.89986   0.00235   0.00000   0.03832   0.03778  -2.86208
   D17       -0.90256   0.00234   0.00000   0.03189   0.03125  -0.87131
   D18        1.26301   0.00127   0.00000  -0.00090  -0.00154   1.26147
   D19       -0.78105   0.00835   0.00000   0.13530   0.13444  -0.64660
   D20        1.35263   0.00234   0.00000   0.10950   0.11003   1.46267
   D21       -2.78936  -0.01157   0.00000   0.00000   0.00001  -2.78936
         Item               Value     Threshold  Converged?
 Maximum Force            0.017408     0.000015     NO 
 RMS     Force            0.004110     0.000010     NO 
 Maximum Displacement     0.235439     0.000060     NO 
 RMS     Displacement     0.083425     0.000040     NO 
 Predicted change in Energy=-3.258866D-03
 GradGradGradGradGradGradGradGradGradGradGradGradGradGradGradGradGradGrad

                          Input orientation:                          
 ---------------------------------------------------------------------
 Center     Atomic      Atomic             Coordinates (Angstroms)
 Number     Number       Type             X           Y           Z
 ---------------------------------------------------------------------
      1          6           0       -1.017600    1.203327   -0.095872
      2          1           0       -0.623915    1.343804   -1.103875
      3          1           0       -0.718896    2.056250    0.520566
      4          1           0       -2.111660    1.198511   -0.141012
      5          6           0       -0.500422   -0.111326    0.485073
      6          1           0       -0.875647   -0.219451    1.515708
      7          6           0        1.032212   -0.176347    0.528073
      8          1           0        1.433928    0.466476    1.335949
      9          1           0        1.346206   -1.197136    0.817937
     10          8           0       -0.915278   -1.229427   -0.302174
     11          1           0       -1.807182   -1.060609   -0.619634
     12          8           0        1.683209    0.147009   -0.625796
 ---------------------------------------------------------------------
                    Distance matrix (angstroms):
                    1          2          3          4          5
     1  C    0.000000
     2  H    1.091234   0.000000
     3  H    1.093936   1.776347   0.000000
     4  H    1.095002   1.778089   1.764424   0.000000
     5  C    1.527509   2.158104   2.178847   2.168811   0.000000
     6  H    2.154447   3.060940   2.488713   2.506605   1.102131
     7  C    2.548438   2.777925   2.837415   3.495974   1.534615
     8  H    2.933095   3.310161   2.797656   3.910049   2.190789
     9  H    3.490680   3.745813   3.864919   4.314573   2.167906
    10  O    2.443629   2.710929   3.392806   2.711491   1.428990
    11  H    2.454216   2.723200   3.492740   2.329250   1.956818
    12  O    2.948050   2.642669   3.275585   3.967582   2.463537
                    6          7          8          9         10
     6  H    0.000000
     7  C    2.148768   0.000000
     8  H    2.415977   1.107818   0.000000
     9  H    2.525744   1.106627   1.744603   0.000000
    10  O    2.079979   2.364529   3.328408   2.523885   0.000000
    11  H    2.476891   3.187681   4.081800   3.468300   0.961652
    12  O    3.356796   1.363734   2.003158   2.001165   2.958283
                   11         12
    11  H    0.000000
    12  O    3.693401   0.000000
 Stoichiometry    C3H7O2(2)
 Framework group  C1[X(C3H7O2)]
 Deg. of freedom    30
 Full point group                 C1      NOp   1
 Largest Abelian subgroup         C1      NOp   1
 Largest concise Abelian subgroup C1      NOp   1
                         Standard orientation:                         
 ---------------------------------------------------------------------
 Center     Atomic      Atomic             Coordinates (Angstroms)
 Number     Number       Type             X           Y           Z
 ---------------------------------------------------------------------
      1          6           0       -1.051788    1.184154   -0.118074
      2          1           0       -0.653608    1.334822   -1.122835
      3          1           0       -0.786089    2.047589    0.498837
      4          1           0       -2.144680    1.144301   -0.173095
      5          6           0       -0.498244   -0.111980    0.470915
      6          1           0       -0.879213   -0.229671    1.498389
      7          6           0        1.035228   -0.127929    0.527941
      8          1           0        1.408841    0.529243    1.337756
      9          1           0        1.378979   -1.137505    0.823266
     10          8           0       -0.870011   -1.244558   -0.317164
     11          1           0       -1.763915   -1.105034   -0.643113
     12          8           0        1.686074    0.213406   -0.620823
 ---------------------------------------------------------------------
 Rotational constants (GHZ):           6.9256229           4.1791527           3.3027576
 Standard basis: 6-311G(2d,d,p) (5D, 7F)
 There are   137 symmetry adapted cartesian basis functions of A   symmetry.
 There are   132 symmetry adapted basis functions of A   symmetry.
   132 basis functions,   216 primitive gaussians,   137 cartesian basis functions
    21 alpha electrons       20 beta electrons
       nuclear repulsion energy       185.4661805441 Hartrees.
 NAtoms=   12 NActive=   12 NUniq=   12 SFac= 1.00D+00 NAtFMM=   60 NAOKFM=F Big=F
 Integral buffers will be    131072 words long.
 Raffenetti 2 integral format.
 Two-electron integral symmetry is turned on.
 One-electron integrals computed using PRISM.
 NBasis=   132 RedAO= T EigKep=  2.25D-03  NBF=   132
 NBsUse=   132 1.00D-06 EigRej= -1.00D+00 NBFU=   132
 Initial guess from the checkpoint file:  "/rc_scratch/jasm3285/Gau-68929.chk"
 B after Tr=     0.000000    0.000000   -0.000000
         Rot=    0.997375    0.014286   -0.002854   -0.070928 Ang=   8.30 deg.
 Initial guess <Sx>= 0.0000 <Sy>= 0.0000 <Sz>= 0.5000 <S**2>= 0.7532 S= 0.5016
 ExpMin= 1.03D-01 ExpMax= 8.59D+03 ExpMxC= 1.30D+03 IAcc=2 IRadAn=         4 AccDes= 0.00D+00
 Harris functional with IExCor=  402 and IRadAn=       4 diagonalized for initial guess.
 HarFok:  IExCor=  402 AccDes= 0.00D+00 IRadAn=         4 IDoV= 1 UseB2=F ITyADJ=14
 ICtDFT=  3500011 ScaDFX=  1.000000  1.000000  1.000000  1.000000
 FoFCou: FMM=F IPFlag=           0 FMFlag=      100000 FMFlg1=           0
         NFxFlg=           0 DoJE=T BraDBF=F KetDBF=T FulRan=T
         wScrn=  0.000000 ICntrl=       500 IOpCl=  0 I1Cent=   200000004 NGrid=           0
         NMat0=    1 NMatS0=      1 NMatT0=    0 NMatD0=    1 NMtDS0=    0 NMtDT0=    0
 Petite list used in FoFCou.
 Keep R1 and R2 ints in memory in canonical form, NReq=78377335.
 Gradient too large for Newton-Raphson -- use scaled steepest descent instead.
     Accept linear search using points  3 and  4.
 Gradient too large for Newton-Raphson -- use scaled steepest descent instead.
 Gradient too large for Newton-Raphson -- use scaled steepest descent instead.
 Gradient too large for Newton-Raphson -- use scaled steepest descent instead.
     Accept linear search using points  1 and  2.
 Gradient too large for Newton-Raphson -- use scaled steepest descent instead.
     Minimum is close to point  2 DX=  2.55D-02 DF= -1.13D-06 DXR=  7.84D-02 DFR=  6.19D-03 which will be used.
 Gradient too large for Newton-Raphson -- use scaled steepest descent instead.
     Accept linear search using points  1 and  2.
 Gradient too large for Newton-Raphson -- use scaled steepest descent instead.
[...]
  Beta virt. eigenvalues --    3.98988   4.01287   4.06588   4.08911   4.11249
  Beta virt. eigenvalues --    4.14987   4.15245   4.18418   4.23303   4.28491
  Beta virt. eigenvalues --    4.32117   4.34852   4.37782   4.39003   4.40557
  Beta virt. eigenvalues --    4.47215   4.53362   4.55442   4.57403   4.59616
  Beta virt. eigenvalues --    4.61627   4.64570   4.68164   4.71933   4.73781
  Beta virt. eigenvalues --    4.77329   4.81604   4.81885   4.85622   4.92498
  Beta virt. eigenvalues --    4.94781   5.00611   5.02951   5.21836   5.48716
  Beta virt. eigenvalues --    5.50064   5.60681   5.62707   5.65439   5.68094
  Beta virt. eigenvalues --    5.70645   5.71784   5.74786   5.76745   5.81635
  Beta virt. eigenvalues --    5.86666   5.90451   5.95311   5.97614   6.03031
  Beta virt. eigenvalues --    6.03443   6.07366   6.11002   6.27603   6.36135
  Beta virt. eigenvalues --    6.43672   6.45774   7.01424   7.19157   7.40416
  Beta virt. eigenvalues --    7.41843   7.53621   7.74595   7.75588   7.79222
  Beta virt. eigenvalues --    7.84021   7.84592   8.09932   8.15871   8.23179
  Beta virt. eigenvalues --   25.39130  25.50432  25.59377  51.67468  51.76109
          Condensed to atoms (all electrons):
               1          2          3          4          5          6
     1  C    4.830223   0.420023   0.433137   0.376812   0.167430  -0.011284
     2  H    0.420023   0.609322  -0.036086  -0.031060  -0.042060   0.000235
     3  H    0.433137  -0.036086   0.619122  -0.029405  -0.050268  -0.005641
     4  H    0.376812  -0.031060  -0.029405   0.643524   0.016662  -0.012832
     5  C    0.167430  -0.042060  -0.050268   0.016662   5.036879   0.449988
     6  H   -0.011284   0.000235  -0.005641  -0.012832   0.449988   0.629884
     7  C    0.058140   0.008561   0.017109  -0.009957   0.125525  -0.073934
     8  H    0.003073  -0.007394   0.000572  -0.001868  -0.044114   0.009863
     9  H   -0.001702  -0.000047  -0.005937   0.000781  -0.028274  -0.002619
    10  O   -0.078167  -0.005393   0.004856  -0.008870   0.294385  -0.036349
    11  H    0.004091  -0.003602   0.001767   0.000021  -0.008899  -0.007312
    12  O    0.023152   0.000439  -0.000576  -0.000141  -0.128989  -0.000507
               7          8          9         10         11         12
     1  C    0.058140   0.003073  -0.001702  -0.078167   0.004091   0.023152
     2  H    0.008561  -0.007394  -0.000047  -0.005393  -0.003602   0.000439
     3  H    0.017109   0.000572  -0.005937   0.004856   0.001767  -0.000576
     4  H   -0.009957  -0.001868   0.000781  -0.008870   0.000021  -0.000141
     5  C    0.125525  -0.044114  -0.028274   0.294385  -0.008899  -0.128989
     6  H   -0.073934   0.009863  -0.002619  -0.036349  -0.007312  -0.000507
     7  C    5.138107   0.416716   0.393225  -0.157201  -0.001799   0.239683
     8  H    0.416716   0.605481  -0.037373  -0.011465   0.002358  -0.039383
     9  H    0.393225  -0.037373   0.625125   0.013403  -0.001573  -0.047607
    10  O   -0.157201  -0.011465   0.013403   8.085335   0.246098   0.016506
    11  H   -0.001799   0.002358  -0.001573   0.246098   0.511292  -0.000344
    12  O    0.239683  -0.039383  -0.047607   0.016506  -0.000344   8.116546
          Atomic-Atomic Spin Densities.
               1          2          3          4          5          6
     1  C    0.019945  -0.000067   0.000179  -0.000780  -0.035472  -0.002394
     2  H   -0.000067  -0.000037   0.000130   0.000136  -0.001078   0.000128
     3  H    0.000179   0.000130  -0.000072   0.000070  -0.000554   0.000060
     4  H   -0.000780   0.000136   0.000070  -0.000891   0.000245   0.000165
     5  C   -0.035472  -0.001078  -0.000554   0.000245   0.070122   0.002111
     6  H   -0.002394   0.000128   0.000060   0.000165   0.002111   0.000571
     7  C    0.009076   0.001423   0.000537   0.000262  -0.008042   0.000874
     8  H   -0.011371   0.000283   0.000151  -0.000033   0.021752   0.002678
     9  H    0.010074  -0.000543  -0.000243   0.000351   0.001619  -0.006004
    10  O    0.005406  -0.000176   0.000024   0.000131  -0.009748  -0.001204
    11  H    0.002175   0.000019   0.000012  -0.000187  -0.003115  -0.000520
    12  O    0.001943   0.000127   0.000078  -0.000092  -0.040231   0.003321
               7          8          9         10         11         12
     1  C    0.009076  -0.011371   0.010074   0.005406   0.002175   0.001943
     2  H    0.001423   0.000283  -0.000543  -0.000176   0.000019   0.000127
     3  H    0.000537   0.000151  -0.000243   0.000024   0.000012   0.000078
     4  H    0.000262  -0.000033   0.000351   0.000131  -0.000187  -0.000092
     5  C   -0.008042   0.021752   0.001619  -0.009748  -0.003115  -0.040231
     6  H    0.000874   0.002678  -0.006004  -0.001204  -0.000520   0.003321
     7  C   -0.113142   0.000850  -0.005338   0.000806   0.000612   0.011203
     8  H    0.000850   0.073604  -0.033381  -0.004274  -0.000924  -0.008469
     9  H   -0.005338  -0.033381   0.137330   0.002559   0.000849  -0.027269
    10  O    0.000806  -0.004274   0.002559   0.004006   0.000571   0.004674
    11  H    0.000612  -0.000924   0.000849   0.000571  -0.000014   0.000494
    12  O    0.011203  -0.008469  -0.027269   0.004674   0.000494   1.035277
 Mulliken charges and spin densities:
               1          2
     1  C   -0.224928  -0.001285
     2  H    0.087060   0.000345
     3  H    0.051350   0.000373
     4  H    0.056333  -0.000623
     5  C    0.211736  -0.002391
     6  H    0.060507  -0.000215
     7  C   -0.154176  -0.100878
     8  H    0.103534   0.040866
     9  H    0.092597   0.080004
    10  O   -0.363137   0.002776
    11  H    0.257901  -0.000029
    12  O   -0.178778   0.981056
 Sum of Mulliken charges =   0.00000   1.00000
 Mulliken charges and spin densities with hydrogens summed into heavy atoms:
               1          2
     1  C   -0.030185  -0.001190
     5  C    0.272244  -0.002605
     7  C    0.041955   0.019992
    10  O   -0.105236   0.002748
    12  O   -0.178778   0.981056
 Electronic spatial extent (au):  <R**2>=            463.6444
 Charge=              0.0000 electrons
 Dipole moment (field-independent basis, Debye):
    X=             -2.9403    Y=              1.6478    Z=              0.3871  Tot=              3.3927
 Quadrupole moment (field-independent basis, Debye-Ang):
   XX=            -33.4780   YY=            -30.6182   ZZ=            -30.7900
   XY=              3.1777   XZ=             -1.8971   YZ=             -1.0689
 Traceless Quadrupole moment (field-independent basis, Debye-Ang):
   XX=             -1.8493   YY=              1.0106   ZZ=              0.8388
   XY=              3.1777   XZ=             -1.8971   YZ=             -1.0689
 Octapole moment (field-independent basis, Debye-Ang**2):
  XXX=            -13.3545  YYY=             -3.6620  ZZZ=             -0.4846  XYY=             -1.9195
  XXY=             -6.1164  XXZ=             -0.2951  XZZ=              1.9164  YZZ=             -0.7991
  YYZ=              2.6254  XYZ=              2.0415
 Hexadecapole moment (field-independent basis, Debye-Ang**3):
 XXXX=           -380.4475 YYYY=           -153.5262 ZZZZ=            -59.9259 XXXY=             15.3236
 XXXZ=             -3.0829 YYYX=             16.8481 YYYZ=             -0.0400 ZZZX=              0.7166
 ZZZY=             -1.0375 XXYY=            -74.9954 XXZZ=            -69.6364 YYZZ=            -39.2444
 XXYZ=              0.2850 YYXZ=             -1.7542 ZZXY=              1.5308
 N-N= 1.835898859745D+02 E-N=-9.963812660849D+02  KE= 2.672047616241D+02
 1\1\GINC-BNODE0305\SP\UMP2-FC\CBSB3\C3H7O2(2)\JASM3285\12-Feb-2018\0\\
 #N Geom=AllCheck Guess=TCheck SCRF=Check MP2/CBSB3 CBSExtrap=(NMin=10,
 MinPop)\\Title Card Required\\0,2\C,0,-1.1054741446,1.177500188,0.3412
 052684\H,0,-0.7102959628,1.8264277641,-0.4456334956\H,0,-0.9214773035,
 1.6492702575,1.3110699274\H,0,-2.1897980986,1.1120340743,0.2090474121\
 C,0,-0.4686873153,-0.2085622271,0.2624291211\H,0,-0.837600794,-0.84160
 13721,1.0821371321\C,0,1.0549319655,-0.1479962003,0.3797612652\H,0,1.4
 840611723,0.3435066823,-0.5130417939\H,0,1.3475982456,0.502150049,1.22
 93227174\O,0,-0.7266028988,-0.8316429324,-0.9961354911\H,0,-1.67617522
 97,-0.8170669934,-1.1496228557\O,0,1.6744753641,-1.3429382899,0.604402
 7926\\Version=ES64L-G16RevA.03\State=2-A\HF=-267.4450218\MP2=-268.3802
 756\E2(CBS)=-1.0312738\CBS-Int=-1.0006112\OIii=8.2794833\PUHF=-267.448
 9886\PMP2-0=-268.3826976\S2=0.759971\S2-1=0.752169\S2A=0.750078\RMSD=7
 .802e-09\PG=C01 [X(C3H7O2)]\\@


 KNIGHT- SIRE, I'VE JUST RETURNED FROM THE FRONT
 KING-   HOW GOES THE BATTLE                    
 KNIGHT- THE SITUATION IS QUITE FLUID           
 KING-   WHAT DOES *THAT* MEAN                  
 KNIGHT- WE'RE UP THE CREEK                     
                THE WIZARD OF ID                
 Diagonal vibrational polarizability:
        0.0000000       0.0000000       0.0000000

 Complete Basis Set (CBS) Extrapolation:
 M. R. Nyden and G. A. Petersson, JCP 75, 1843 (1981)
 G. A. Petersson and M. A. Al-Laham, JCP 94, 6081 (1991)
 G. A. Petersson, T. Tensfeldt, and J. A. Montgomery, JCP 94, 6091 (1991)
 J. A. Montgomery, J. W. Ochterski, and G. A. Petersson, JCP 101, 5900 (1994)

 Temperature=               298.150000 Pressure=                       1.000000
 E(ZPE)=                      0.096967 E(Thermal)=                     0.103323
 E(SCF)=                   -267.445022 DE(MP2)=                       -0.935254
 DE(CBS)=                    -0.096020 DE(MP34)=                      -0.053776
 DE(CCSD)=                   -0.023402 DE(Int)=                        0.030663
 DE(Empirical)=              -0.048033
 CBS-QB3 (0 K)=            -268.473877 CBS-QB3 Energy=              -268.467521
 CBS-QB3 Enthalpy=         -268.466577 CBS-QB3 Free Energy=         -268.503798
 1\1\GINC-BNODE0305\Mixed\CBS-QB3\CBS-QB3\C3H7O2(2)\JASM3285\12-Feb-201
 8\0\\# opt=(calcfc,tight,modredundant,noeigentest) freq cbs-qb3 scf=qc
  geom=connectivity ccsd=maxcyc=1000 optcyc=100\\Title Card Required\\0
 ,2\C,0,-1.1054741446,1.177500188,0.3412052684\H,0,-0.7102959628,1.8264
 277641,-0.4456334956\H,0,-0.9214773035,1.6492702575,1.3110699274\H,0,-
 2.1897980986,1.1120340743,0.2090474121\C,0,-0.4686873153,-0.2085622271
 ,0.2624291211\H,0,-0.837600794,-0.8416013721,1.0821371321\C,0,1.054931
 9655,-0.1479962003,0.3797612652\H,0,1.4840611723,0.3435066823,-0.51304
 17939\H,0,1.3475982456,0.502150049,1.2293227174\O,0,-0.7266028988,-0.8
 316429324,-0.9961354911\H,0,-1.6761752297,-0.8170669934,-1.1496228557\
 O,0,1.6744753641,-1.3429382899,0.6044027926\\Version=ES64L-G16RevA.03\
 State=2-A\HF/CbsB3=-267.4450218\E2(CBS)/CbsB3=-1.0312738\CBS-Int/CbsB3
 =0.0306627\OIii/CbsB3=8.2794833\MP2/CbsB4=-268.1440662\MP4(SDQ)/CbsB4=
 -268.1978417\MP4(SDQ)/6-31+G(d')=-268.1329777\QCISD(T)/6-31+G(d')=-268
 .1563799\CBSQB3=-268.4738773\FreqCoord=-2.0890433712,2.2251528669,0.64
 47845095,-1.3422648371,3.4514482604,-0.8421252585,-1.7413397337,3.1166
 69092,2.477563093,-4.1381186745,2.1014398416,0.3950423558,-0.885690664
 1,-0.3941254891,0.4959191659,-1.5828361023,-1.5903960994,2.0449428088,
 1.9935324948,-0.279672286,0.717644784,2.8044691677,0.6491335515,-0.969
 508481,2.5465916101,0.9489260661,2.3230832546,-1.37308048,-1.571577375
 6,-1.8824232611,-3.167512121,-1.544032843,-2.1724723438,3.1642998405,-
 2.5377855701,1.142155747\PG=C01 [X(C3H7O2)]\NImag=0\\0.54793030,0.0370
 1853,0.47778218,0.00310079,-0.00281059,0.57205064,-0.08321533,-0.05601
 952,0.06965326,0.08706356,-0.05617308,-0.13529040,0.10806314,0.0596145
 5,0.14805769,0.06919616,0.10976083,-0.18277811,-0.07641613,-0.12201783
 ,0.19551185,-0.05407303,-0.01828077,-0.04049219,0.00152114,0.00633970,
 0.01065775,0.05547943,-0.01774544,-0.09500994,-0.09629028,0.00464782,0
 .00921924,0.01679332,0.01933012,0.10010581,-0.03965286,-0.09751120,-0.
 25157689,-0.00464672,-0.01010271,-0.01859769,0.04447382,0.10866498,0.2
 7256496,-0.29990944,-0.01915628,-0.03055282,-0.01116240,-0.00089092,-0
 .00160563,-0.00476905,-0.00059597,-0.00064822,0.32645632,-0.01988256,-
 0.04759623,-0.00286245,-0.01869308,-0.00182693,-0.00352112,-0.01401424
 ,-0.00160039,-0.00079083,0.01873611,0.05187629,-0.03049670,-0.00189641
 ,-0.05003679,0.02378857,0.00113228,0.00329999,-0.02901911,-0.00148503,
 -0.00308771,0.03423497,0.00296641,0.05004051,-0.10379119,0.03550888,-0
 .00432526,0.00602640,-0.01120590,-0.00142487,0.00167571,-0.00894181,0.
 00003198,-0.01511937,0.03457016,0.00080393,0.50892112,0.04204711,-0.16
 431414,0.01257052,0.00886622,-0.02004302,-0.00066295,0.00234094,-0.006
 61663,0.00125887,-0.00237860,0.00132669,-0.00086353,0.02059967,0.50726
 387,0.00348143,0.00585657,-0.07589755,-0.01181900,0.02573316,-0.000984
 19,0.01257335,-0.02630567,-0.00195211,-0.00281581,0.00314373,-0.001213
 18,-0.02381156,-0.06633216,0.50879121,0.00570441,0.01096551,-0.0102693
 5,-0.00067549,0.00326262,-0.00011948,0.00038355,-0.00051918,0.00030988
 ,0.00083421,-0.00083899,-0.00043437,-0.08244492,-0.05007173,0.06002199
 ,0.08648670,-0.01053217,-0.01880198,0.02099828,0.00295790,-0.00483485,
 -0.00051946,-0.00037555,0.00050426,-0.00055101,0.00049885,0.00138739,-
 0.00009908,-0.05288657,-0.13724635,0.10571280,0.05413210,0.14776194,-0
 .00001333,-0.00011549,0.00364685,0.00030149,-0.00119158,0.00113366,-0.
 00032114,0.00119900,0.00043922,-0.00010166,0.00010217,-0.00025263,0.05
 976026,0.10433758,-0.16784676,-0.06446911,-0.10855157,0.19945836,-0.01
 274536,0.00857683,0.00296829,0.00089500,-0.00190723,0.00056751,0.00015
 057,-0.00046508,-0.00108437,0.00197060,-0.00119509,0.00057914,-0.16633
 850,-0.02428646,-0.01476020,-0.01652805,0.00000874,-0.00041483,0.46476
 700,0.03139654,-0.00097064,0.00294807,0.00069690,0.00102954,-0.0003271
 0,-0.00013566,0.00092696,0.00022683,0.00314743,-0.00482396,-0.00006203
 ,-0.02286943,-0.07494442,0.00590794,-0.02003836,-0.00185112,0.00042786
 ,0.01372566,0.43163799,-0.00024506,0.00400973,-0.00168592,-0.00118549,
 -0.00022192,0.00056912,0.00031585,-0.00121401,-0.00020479,-0.00036097,
 -0.00135085,-0.00031895,0.00035622,0.00604495,-0.05019641,0.02687812,0
 .00303437,0.00210671,0.03372742,-0.00887213,0.43127148,0.00117804,-0.0
 0104030,-0.00019553,-0.00003605,0.00100443,-0.00035283,-0.00005823,-0.
 00018122,-0.00001367,0.00016875,0.00023503,-0.00052276,-0.01661430,-0.
 01396484,0.03411502,-0.00614033,-0.00034477,-0.00129368,-0.08597953,-0
 .02792294,0.05712702,0.09001644,-0.00046651,-0.00007218,-0.00024311,0.
 00012010,0.00019515,0.00009457,0.00020303,0.00016050,-0.00014905,-0.00
 024618,0.00022609,0.00022291,-0.00006396,0.00011241,-0.00158511,-0.000
 58475,0.00018157,0.00046168,-0.04757451,-0.06773609,0.09431118,0.04056
 357,0.09333711,0.00034753,-0.00039137,0.00000477,0.00032980,-0.0002866
 5,0.00021132,0.00006759,0.00006772,0.00003543,0.00007792,-0.00017506,0
 .00012594,-0.00190495,-0.00059830,-0.00120250,-0.00027758,-0.00047724,
 0.00070061,0.07949770,0.07584264,-0.19108252,-0.08213994,-0.09479741,0
 .21462870,0.00098746,-0.00052482,-0.00066903,0.00007437,0.00011607,0.0
 0002429,-0.00047685,0.00061656,0.00037038,0.00036282,-0.00015627,0.000
 21040,-0.00459862,-0.01634209,-0.02244511,0.00045707,-0.00031669,0.001
 19712,-0.06048730,-0.02452399,-0.04890862,0.00268481,0.00497085,0.0089
 8106,0.06415360,0.00129349,0.00056683,-0.00041073,-0.00006082,-0.00013
 000,0.00025637,0.00029721,-0.00000662,0.00024282,-0.00014922,-0.000250
 65,-0.00001334,-0.00367648,-0.00117171,0.00283936,0.00014336,-0.000228
 78,-0.00003456,-0.03238550,-0.09702216,-0.12819214,-0.00316478,0.01184
 247,0.00925098,0.03276567,0.12898394,0.00019360,-0.00060280,0.00053028
 ,-0.00013482,0.00009474,-0.00030185,-0.00002384,0.00030002,0.00044079,
 0.00001330,0.00040915,0.00016661,0.00508313,-0.00087450,-0.00777645,-0
 .00067683,0.00003307,0.00042302,-0.05956314,-0.09522124,-0.15740474,-0
 .00242750,-0.01730138,-0.02128533,0.05332538,0.12038170,0.18881913,0.0
 0386210,0.00516459,0.01147210,-0.00010009,-0.00028766,-0.00016304,0.00
 026892,0.00307127,0.00008375,0.00273458,-0.00076039,0.00100625,-0.0944
 0508,-0.01727724,-0.03734108,0.00587296,0.00582339,0.00454583,-0.01921
 127,-0.01818792,-0.03659304,0.00484213,-0.00095206,-0.00022907,-0.0075
 6280,0.00120947,-0.00325133,0.60698193,-0.00735085,-0.02015268,-0.0433
 4614,-0.00135264,0.00404653,0.00016456,0.00403409,-0.00800470,-0.00153
 991,-0.00058666,0.00272378,0.00062093,0.00656461,-0.08930179,-0.048767
 59,0.00332201,0.01141422,0.00415835,-0.00457205,-0.00165219,-0.0098213
 4,0.00076996,0.00010192,-0.00019678,-0.00071056,-0.00011679,0.00015708
 ,-0.00470336,0.11059838,-0.00498158,-0.01475987,-0.01770306,-0.0005755
 8,-0.00116179,0.00212248,0.00159374,-0.00316614,0.00178466,0.00085651,
 0.00247318,0.00053153,0.00685307,-0.05739264,-0.18197049,-0.00866681,-
 0.01914560,-0.04052249,-0.01134386,-0.00852645,-0.01235426,0.00016157,
 -0.00035250,0.00159740,-0.00107089,0.00089586,-0.00018203,0.10319127,0
 .11295629,0.28942461,0.00314222,0.00050536,0.00243604,-0.00020246,-0.0
 0022214,-0.00018080,-0.00025903,0.00096694,0.00026106,-0.00024999,-0.0
 0083930,-0.00004624,-0.00867387,0.00231825,0.00361558,0.00063852,0.000
 63387,0.00115085,0.00075940,-0.00096806,-0.00315715,0.00054972,0.00029
 075,-0.00011155,-0.00056813,0.00014995,-0.00024602,-0.50810628,0.00479
 624,-0.08699366,0.51271134,-0.00249973,0.00088390,0.00071631,-0.000216
 63,-0.00045957,-0.00003756,0.00051555,0.00049310,0.00052977,0.00124545
 ,-0.00024878,-0.00046799,-0.02017366,-0.00229693,-0.00552779,0.0008399
 3,0.00048790,0.00022942,-0.00221340,-0.00119858,-0.00161491,0.00049798
 ,-0.00042359,0.00011426,-0.00071346,0.00064420,-0.00099329,0.02936524,
 -0.01094954,-0.01201360,-0.00723758,0.01362079,-0.00014781,0.00027071,
 0.00189548,0.00042644,0.00017358,-0.00006594,0.00016596,0.00068981,-0.
 00005499,0.00093328,-0.00094818,0.00010844,-0.04142198,-0.00133566,-0.
 01127657,-0.00046001,0.00061836,0.00003614,0.00004223,-0.00309021,-0.0
 0563855,0.00005057,-0.00033213,0.00004502,-0.00175318,-0.00009289,0.00
 009074,-0.04117093,-0.01611059,-0.04284212,0.08292716,0.01990798,0.057
 42390,-0.00907018,-0.00271802,-0.00312630,-0.00018866,0.00034957,-0.00
 018292,0.00015686,-0.00018401,0.00051495,-0.00131705,0.00283862,-0.000
 10409,-0.02463738,0.04814876,-0.00081461,0.00541137,0.00040090,-0.0003
 4181,-0.10725255,0.06567985,-0.02795431,0.00938856,0.00373966,-0.00463
 851,0.00497357,0.00357765,0.00770806,0.00482290,-0.00021079,0.00097622
 ,0.00025856,0.00059031,0.00040827,0.11745398,0.00289469,0.00297527,0.0
 0066699,-0.00056080,0.00003664,0.00001636,-0.00025445,-0.00017159,-0.0
 0027855,0.00037598,-0.00119329,-0.00005512,0.02257449,-0.01276798,-0.0
 0067523,-0.00061253,0.00122580,-0.00102287,0.09228812,-0.18339533,0.04
 388709,0.00354788,-0.03792536,0.01164722,0.00481873,-0.04311072,-0.006
 38255,-0.00246533,0.00129288,0.00019327,-0.00039428,-0.00055290,0.0002
 4923,-0.12221251,0.27358659,-0.00078218,-0.00181010,0.00155029,0.00027
 817,-0.00021441,-0.00012063,0.00000821,0.00074629,0.00020912,-0.000030
 88,0.00055385,0.00063624,0.00000002,0.00384781,-0.00847499,-0.00183645
 ,-0.00105291,0.00067731,-0.03021588,0.03074582,-0.01506117,-0.00450827
 ,0.01967036,-0.00377884,0.01073820,-0.00512343,-0.00352018,-0.00155070
 ,0.00172515,0.00011376,0.00034473,-0.00084260,0.00027845,0.02755503,-0
 .04824583,0.02749065\\0.00000003,0.00000008,0.00000012,0.00000002,-0.0
 0000005,-0.00000003,-0.00000012,0.00000009,0.00000006,-0.00000002,0.00
 000018,0.,0.00001804,-0.00051170,0.00024948,-0.00000008,-0.00000002,-0
 .00000002,-0.00000097,0.00053952,-0.00026880,-0.00000001,0.00000059,0.
 00000046,0.00000033,-0.00000060,0.00000003,-0.00010196,-0.00088820,0.0
 0046068,0.00008480,0.00086038,-0.00044301,-0.00000006,-0.00000026,0.00
 000102\\\@
 Job cpu time:       0 days  0 hours  4 minutes 27.9 seconds.
 Elapsed time:       0 days  0 hours  4 minutes 36.3 seconds.
 File lengths (MBytes):  RWF=   2650 Int=      0 D2E=      0 Chk=      8 Scr=      2
 Normal termination of Gaussian 16 at Mon Feb 12 23:46:43 2018.
