 Entering Gaussian System, Link 0=g16
 Input=pvc_gs.com
 Output=pvc_gs.log
 Initial command:
 /projects/jasm3285/g16/l1.exe "/rc_scratch/jasm3285/Gau-158696.inp" -scrdir="/rc_scratch/jasm3285/"
 Entering Link 1 = /projects/jasm3285/g16/l1.exe PID=    158697.
  
 Copyright (c) 1988,1990,1992,1993,1995,1998,2003,2009,2016,
            Gaussian, Inc.  All Rights Reserved.
  
 This is part of the Gaussian(R) 16 program.  It is based on
 the Gaussian(R) 09 system (copyright 2009, Gaussian, Inc.),
 the Gaussian(R) 03 system (copyright 2003, Gaussian, Inc.),
 the Gaussian(R) 98 system (copyright 1998, Gaussian, Inc.),
 the Gaussian(R) 94 system (copyright 1995, Gaussian, Inc.),
 the Gaussian 92(TM) system (copyright 1992, Gaussian, Inc.),
 the Gaussian 90(TM) system (copyright 1990, Gaussian, Inc.),
 the Gaussian 88(TM) system (copyright 1988, Gaussian, Inc.),
 the Gaussian 86(TM) system (copyright 1986, Carnegie Mellon
 University), and the Gaussian 82(TM) system (copyright 1983,
 Carnegie Mellon University). Gaussian is a federally registered
 trademark of Gaussian, Inc.
  
 This software contains proprietary and confidential information,
 including trade secrets, belonging to Gaussian, Inc.
  
 This software is provided under written license and may be
 used, copied, transmitted, or stored only in accord with that
 written license.
  
 The following legend is applicable only to US Government
 contracts under FAR:
  
                    RESTRICTED RIGHTS LEGEND
  
 Use, reproduction and disclosure by the US Government is
 subject to restrictions as set forth in subparagraphs (a)
 and (c) of the Commercial Computer Software - Restricted
 Rights clause in FAR 52.227-19.
  
 Gaussian, Inc.
 340 Quinnipiac St., Bldg. 40, Wallingford CT 06492
  
  
 ---------------------------------------------------------------
 Warning -- This program may not be used in any manner that
 competes with the business of Gaussian, Inc. or will provide
 assistance to any competitor of Gaussian, Inc.  The licensee
 of this program is prohibited from giving any competitor of
 Gaussian, Inc. access to this program.  By using this program,
 the user acknowledges that Gaussian, Inc. is engaged in the
 business of creating and licensing software in the field of
 computational chemistry and represents and warrants to the
 licensee that it is not a competitor of Gaussian, Inc. and that
 it will not use this program in any manner prohibited above.
 ---------------------------------------------------------------
  

 Cite this work as:
 Gaussian 16, Revision A.03,
 M. J. Frisch, G. W. Trucks, H. B. Schlegel, G. E. Scuseria, 
 M. A. Robb, J. R. Cheeseman, G. Scalmani, V. Barone, 
 G. A. Petersson, H. Nakatsuji, X. Li, M. Caricato, A. V. Marenich, 
 J. Bloino, B. G. Janesko, R. Gomperts, B. Mennucci, H. P. Hratchian, 
 J. V. Ortiz, A. F. Izmaylov, J. L. Sonnenberg, D. Williams-Young, 
 F. Ding, F. Lipparini, F. Egidi, J. Goings, B. Peng, A. Petrone, 
 T. Henderson, D. Ranasinghe, V. G. Zakrzewski, J. Gao, N. Rega, 
 G. Zheng, W. Liang, M. Hada, M. Ehara, K. Toyota, R. Fukuda, 
 J. Hasegawa, M. Ishida, T. Nakajima, Y. Honda, O. Kitao, H. Nakai, 
 T. Vreven, K. Throssell, J. A. Montgomery, Jr., J. E. Peralta, 
 F. Ogliaro, M. J. Bearpark, J. J. Heyd, E. N. Brothers, K. N. Kudin, 
 V. N. Staroverov, T. A. Keith, R. Kobayashi, J. Normand, 
 K. Raghavachari, A. P. Rendell, J. C. Burant, S. S. Iyengar, 
 J. Tomasi, M. Cossi, J. M. Millam, M. Klene, C. Adamo, R. Cammi, 
 J. W. Ochterski, R. L. Martin, K. Morokuma, O. Farkas, 
 J. B. Foresman, and D. J. Fox, Gaussian, Inc., Wallingford CT, 2016.
 
 ******************************************
 Gaussian 16:  ES64L-G16RevA.03 25-Dec-2016
                 6-Mar-2018 
 ******************************************
 %mem=60GB
 %nprocshared=28
 Will use up to   28 processors via shared memory.
 ----------------------------------------------------------------------
 # opt=(calcfc,verytight) freq cbs-qb3 nosymm geom=connectivity ccsd=ma
 xcyc=1000 optcyc=200 iop(7/33=1)
 ----------------------------------------------------------------------
 1/6=200,7=1,10=4,18=20,19=15,26=3,38=1,57=2/1,3;
 2/9=110,12=2,15=1,17=6,18=5,40=1/2;
 3/5=4,6=6,7=700,11=2,25=1,30=1,71=2,74=-5,140=1/1,2,3;
 4//1;
 5/5=2,38=5/2;
 8/6=4,10=90,11=11/1;
 11/6=1,8=1,9=11,15=111,16=1,31=1/1,2,10;
 10/6=1,13=1,31=1/2;
 6/7=2,8=2,9=2,10=2,28=1/1;
 7/10=1,18=20,25=1,30=1,33=1/1,2,3,16;
 1/6=200,7=1,10=4,18=20,19=15,26=3/3(2);
 2/9=110,15=1/2;
 99//99;
 2/9=110,15=1/2;
 3/5=4,6=6,7=700,11=2,25=1,30=1,71=1,74=-5/1,2,3;
 4/5=5,16=3,69=1/1;
 5/5=2,38=5/2;
 7/30=1,33=1/1,2,3,16;
 1/6=200,7=1,18=20,19=15,26=3/3(-5);
 2/9=110,15=1/2;
 6/7=2,8=2,9=2,10=2,19=2,28=1/1;
 99/9=1/99;
 -------------------
 Title Card Required
 -------------------
 Symbolic Z-matrix:
 Charge =  0 Multiplicity = 2
 C                    -4.27471   0.23748   0. 
 H                    -3.91806  -0.77133   0. 
 C                    -3.76137   0.96344   1.2574 
 H                    -4.11786   1.97231   1.25731 
 H                    -4.1182    0.45915   2.13106 
 C                    -2.22137   0.96318   1.25755 
 H                    -1.86454   1.46743   0.38388 
 C                    -1.70803   1.68918   2.51492 
 H                    -2.06487   1.18493   3.38859 
 H                    -0.63803   1.68899   2.51502 
 H                    -2.06452   2.69805   2.51479 
 Cl                   -3.68803   1.06715  -1.43703 
 Cl                   -1.63499  -0.69627   1.25777 
 

 GradGradGradGradGradGradGradGradGradGradGradGradGradGradGradGradGradGrad
 Berny optimization.
 Initialization pass.
                           ----------------------------
                           !    Initial Parameters    !
                           ! (Angstroms and Degrees)  !
 --------------------------                            --------------------------
 ! Name  Definition              Value          Derivative Info.                !
 --------------------------------------------------------------------------------
 ! R1    R(1,2)                  1.07           calculate D2E/DX2 analytically  !
 ! R2    R(1,3)                  1.54           calculate D2E/DX2 analytically  !
 ! R3    R(1,12)                 1.76           calculate D2E/DX2 analytically  !
 ! R4    R(3,4)                  1.07           calculate D2E/DX2 analytically  !
 ! R5    R(3,5)                  1.07           calculate D2E/DX2 analytically  !
 ! R6    R(3,6)                  1.54           calculate D2E/DX2 analytically  !
 ! R7    R(6,7)                  1.07           calculate D2E/DX2 analytically  !
 ! R8    R(6,8)                  1.54           calculate D2E/DX2 analytically  !
 ! R9    R(6,13)                 1.76           calculate D2E/DX2 analytically  !
 ! R10   R(8,9)                  1.07           calculate D2E/DX2 analytically  !
 ! R11   R(8,10)                 1.07           calculate D2E/DX2 analytically  !
 ! R12   R(8,11)                 1.07           calculate D2E/DX2 analytically  !
 ! A1    A(2,1,3)              109.4712         calculate D2E/DX2 analytically  !
 ! A2    A(2,1,12)             109.4712         calculate D2E/DX2 analytically  !
 ! A3    A(3,1,12)             109.4713         calculate D2E/DX2 analytically  !
 ! A4    A(1,3,4)              109.4712         calculate D2E/DX2 analytically  !
 ! A5    A(1,3,5)              109.4712         calculate D2E/DX2 analytically  !
 ! A6    A(1,3,6)              109.4712         calculate D2E/DX2 analytically  !
 ! A7    A(4,3,5)              109.4712         calculate D2E/DX2 analytically  !
 ! A8    A(4,3,6)              109.4713         calculate D2E/DX2 analytically  !
 ! A9    A(5,3,6)              109.4712         calculate D2E/DX2 analytically  !
 ! A10   A(3,6,7)              109.4712         calculate D2E/DX2 analytically  !
 ! A11   A(3,6,8)              109.4712         calculate D2E/DX2 analytically  !
 ! A12   A(3,6,13)             109.4712         calculate D2E/DX2 analytically  !
 ! A13   A(7,6,8)              109.4713         calculate D2E/DX2 analytically  !
 ! A14   A(7,6,13)             109.4712         calculate D2E/DX2 analytically  !
 ! A15   A(8,6,13)             109.4712         calculate D2E/DX2 analytically  !
 ! A16   A(6,8,9)              109.4712         calculate D2E/DX2 analytically  !
 ! A17   A(6,8,10)             109.4712         calculate D2E/DX2 analytically  !
 ! A18   A(6,8,11)             109.4712         calculate D2E/DX2 analytically  !
 ! A19   A(9,8,10)             109.4713         calculate D2E/DX2 analytically  !
 ! A20   A(9,8,11)             109.4712         calculate D2E/DX2 analytically  !
 ! A21   A(10,8,11)            109.4712         calculate D2E/DX2 analytically  !
 ! D1    D(2,1,3,4)            179.9889         calculate D2E/DX2 analytically  !
 ! D2    D(2,1,3,5)            -60.0111         calculate D2E/DX2 analytically  !
 ! D3    D(2,1,3,6)             59.9889         calculate D2E/DX2 analytically  !
 ! D4    D(12,1,3,4)            59.9889         calculate D2E/DX2 analytically  !
 ! D5    D(12,1,3,5)           179.9889         calculate D2E/DX2 analytically  !
 ! D6    D(12,1,3,6)           -60.0111         calculate D2E/DX2 analytically  !
 ! D7    D(1,3,6,7)             59.9979         calculate D2E/DX2 analytically  !
 ! D8    D(1,3,6,8)            179.9979         calculate D2E/DX2 analytically  !
 ! D9    D(1,3,6,13)           -60.0021         calculate D2E/DX2 analytically  !
 ! D10   D(4,3,6,7)            -60.0021         calculate D2E/DX2 analytically  !
 ! D11   D(4,3,6,8)             59.9979         calculate D2E/DX2 analytically  !
 ! D12   D(4,3,6,13)           179.9979         calculate D2E/DX2 analytically  !
 ! D13   D(5,3,6,7)            179.9979         calculate D2E/DX2 analytically  !
 ! D14   D(5,3,6,8)            -60.0021         calculate D2E/DX2 analytically  !
 ! D15   D(5,3,6,13)            59.9979         calculate D2E/DX2 analytically  !
 ! D16   D(3,6,8,9)             59.9996         calculate D2E/DX2 analytically  !
 ! D17   D(3,6,8,10)           179.9996         calculate D2E/DX2 analytically  !
 ! D18   D(3,6,8,11)           -60.0004         calculate D2E/DX2 analytically  !
 ! D19   D(7,6,8,9)            179.9996         calculate D2E/DX2 analytically  !
 ! D20   D(7,6,8,10)           -60.0004         calculate D2E/DX2 analytically  !
 ! D21   D(7,6,8,11)            59.9996         calculate D2E/DX2 analytically  !
 ! D22   D(13,6,8,9)           -60.0004         calculate D2E/DX2 analytically  !
 ! D23   D(13,6,8,10)           59.9996         calculate D2E/DX2 analytically  !
 ! D24   D(13,6,8,11)          179.9996         calculate D2E/DX2 analytically  !
 --------------------------------------------------------------------------------
 Trust Radius=3.00D-01 FncErr=1.00D-07 GrdErr=1.00D-06 EigMax=2.50D+02 EigMin=1.00D-04
 Number of steps in this run=    100 maximum allowed number of steps=    100.
 GradGradGradGradGradGradGradGradGradGradGradGradGradGradGradGradGradGrad

                          Input orientation:                          
 ---------------------------------------------------------------------
 Center     Atomic      Atomic             Coordinates (Angstroms)
 Number     Number       Type             X           Y           Z
 ---------------------------------------------------------------------
      1          6           0       -4.274711    0.237484    0.000000
      2          1           0       -3.918057   -0.771326    0.000000
      3          6           0       -3.761369    0.963440    1.257405
      4          1           0       -4.117864    1.972307    1.257307
      5          1           0       -4.118201    0.459154    2.131056
      6          6           0       -2.221369    0.963177    1.257545
      7          1           0       -1.864537    1.467431    0.383875
      8          6           0       -1.708027    1.689180    2.514923
      9          1           0       -2.064865    1.184931    3.388593
     10          1           0       -0.638027    1.688992    2.515024
     11          1           0       -2.064516    2.698049    2.514785
     12         17           0       -3.688035    1.067148   -1.437034
     13         17           0       -1.634985   -0.696266    1.257767
 ---------------------------------------------------------------------
                    Distance matrix (angstroms):
                    1          2          3          4          5
     1  C    0.000000
     2  H    1.070000   0.000000
     3  C    1.540000   2.148263   0.000000
     4  H    2.148263   3.024610   1.070000   0.000000
     5  H    2.148263   2.468915   1.070000   1.747303   0.000000
     6  C    2.514809   2.732887   1.540000   2.148263   2.148263
     7  H    2.732960   3.062080   2.148263   2.468859   3.024610
     8  C    3.875581   4.154896   2.514809   2.732961   2.732994
     9  H    4.154953   4.329414   2.732974   3.062212   2.514824
    10  H    4.653783   4.810105   3.444314   3.710982   3.711003
    11  H    4.154935   4.668653   2.732981   2.514795   3.062274
    12  Cl   1.760000   2.344774   2.697431   2.874638   3.644992
    13  Cl   3.069531   2.607686   2.697431   3.644992   2.874716
                    6          7          8          9         10
     6  C    0.000000
     7  H    1.070000   0.000000
     8  C    1.540000   2.148263   0.000000
     9  H    2.148263   3.024610   1.070000   0.000000
    10  H    2.148263   2.468849   1.070000   1.747303   0.000000
    11  H    2.148263   2.468844   1.070000   1.747303   1.747303
    12  Cl   3.069638   2.607888   4.463779   5.092664   5.030706
    13  Cl   1.760000   2.344774   2.697431   2.874738   2.874731
                   11         12         13
    11  H    0.000000
    12  Cl   4.573022   0.000000
    13  Cl   3.644992   3.819240   0.000000
 Symmetry turned off by external request.
 Stoichiometry    C4H7Cl2(2)
 Framework group  C1[X(C4H7Cl2)]
 Deg. of freedom    33
 Full point group                 C1      NOp   1
 Rotational constants (GHZ):           3.5869356           1.3483137           1.1675855
 Standard basis: 6-311G(2d,d,p) (5D, 7F)
   176 basis functions,   294 primitive gaussians,   184 cartesian basis functions
    33 alpha electrons       32 beta electrons
       nuclear repulsion energy       356.4451746186 Hartrees.
 NAtoms=   13 NActive=   13 NUniq=   13 SFac= 1.00D+00 NAtFMM=   60 NAOKFM=F Big=F
 Integral buffers will be    131072 words long.
 Raffenetti 2 integral format.
 Two-electron integral symmetry is turned off.
 One-electron integrals computed using PRISM.
 NBasis=   176 RedAO= T EigKep=  1.79D-03  NBF=   176
 NBsUse=   176 1.00D-06 EigRej= -1.00D+00 NBFU=   176
 ExpMin= 1.03D-01 ExpMax= 1.06D+05 ExpMxC= 3.62D+03 IAcc=3 IRadAn=         5 AccDes= 0.00D+00
 Harris functional with IExCor=  402 and IRadAn=       5 diagonalized for initial guess.
 HarFok:  IExCor=  402 AccDes= 0.00D+00 IRadAn=         5 IDoV= 1 UseB2=F ITyADJ=14
 ICtDFT=  3500011 ScaDFX=  1.000000  1.000000  1.000000  1.000000
 FoFCou: FMM=F IPFlag=           0 FMFlag=      100000 FMFlg1=           0
         NFxFlg=           0 DoJE=T BraDBF=F KetDBF=T FulRan=T
         wScrn=  0.000000 ICntrl=       500 IOpCl=  0 I1Cent=   200000004 NGrid=           0
         NMat0=    1 NMatS0=      1 NMatT0=    0 NMatD0=    1 NMtDS0=    0 NMtDT0=    0
 Symmetry not used in FoFCou.
 Initial guess <Sx>= 0.0000 <Sy>= 0.0000 <Sz>= 0.5000 <S**2>= 0.7500 S= 0.5000
 Requested convergence on RMS density matrix=1.00D-08 within 128 cycles.
 Requested convergence on MAX density matrix=1.00D-06.
 Requested convergence on             energy=1.00D-06.
 No special actions if energy rises.
 Integral accuracy reduced to 1.0D-05 until final iterations.
 Initial convergence to 1.0D-05 achieved.  Increase integral accuracy.
 SCF Done:  E(UB3LYP) =  -1077.07164013     A.U. after   15 cycles
            NFock= 15  Conv=0.35D-08     -V/T= 2.0025
 <Sx>= 0.0000 <Sy>= 0.0000 <Sz>= 0.5000 <S**2>= 0.7533 S= 0.5016
 <L.S>=  0.00000000000    
 Annihilation of the first spin contaminant:
 S**2 before annihilation     0.7533,   after     0.7500
 DoSCS=F DFT=T ScalE2(SS,OS)=  1.000000  1.000000
 Range of M.O.s used for correlation:     1   176
 NBasis=   176 NAE=    33 NBE=    32 NFC=     0 NFV=     0
 NROrb=    176 NOA=    33 NOB=    32 NVA=   143 NVB=   144
 Symmetrizing basis deriv contribution to polar:
 IMax=3 JMax=2 DiffMx= 0.00D+00
 G2DrvN: will do    14 centers at a time, making    1 passes.
 Calling FoFCou, ICntrl=  3107 FMM=F I1Cent=   0 AccDes= 0.00D+00.
 End of G2Drv F.D. properties file   721 does not exist.
 End of G2Drv F.D. properties file   722 does not exist.
 End of G2Drv F.D. properties file   788 does not exist.
          IDoAtm=1111111111111
          Differentiating once with respect to nuclear coordinates.
 Keep R1 and R2 ints in memory in canonical form, NReq=270892848.
          There are    42 degrees of freedom in the 1st order CPHF.  IDoFFX=6 NUNeed=     0.
     36 vectors produced by pass  0 Test12= 2.22D-14 2.38D-09 XBig12= 1.65D-01 1.11D-01.
 AX will form    36 AO Fock derivatives at one time.
     36 vectors produced by pass  1 Test12= 2.22D-14 2.38D-09 XBig12= 1.43D-02 3.50D-02.
     36 vectors produced by pass  2 Test12= 2.22D-14 2.38D-09 XBig12= 6.77D-04 6.97D-03.
     36 vectors produced by pass  3 Test12= 2.22D-14 2.38D-09 XBig12= 7.27D-06 4.11D-04.
     36 vectors produced by pass  4 Test12= 2.22D-14 2.38D-09 XBig12= 4.48D-08 3.91D-05.
     36 vectors produced by pass  5 Test12= 2.22D-14 2.38D-09 XBig12= 2.33D-10 2.01D-06.
     25 vectors produced by pass  6 Test12= 2.22D-14 2.38D-09 XBig12= 1.48D-12 1.77D-07.
      5 vectors produced by pass  7 Test12= 2.22D-14 2.38D-09 XBig12= 6.30D-15 7.15D-09.
 InvSVY:  IOpt=1 It=  1 EMax= 9.99D-16
 Solved reduced A of dimension   246 with    36 vectors.
 End of Minotr F.D. properties file   721 does not exist.
 End of Minotr F.D. properties file   722 does not exist.
 End of Minotr F.D. properties file   788 does not exist.

 **********************************************************************

            Population analysis using the SCF density.

 **********************************************************************

 Alpha  occ. eigenvalues -- -101.56282-101.54872 -10.24976 -10.24576 -10.19827
 Alpha  occ. eigenvalues --  -10.17652  -9.47631  -9.46387  -7.24008  -7.23305
 Alpha  occ. eigenvalues --   -7.23074  -7.22804  -7.21877  -7.21871  -0.90319
 Alpha  occ. eigenvalues --   -0.87045  -0.77890  -0.73840  -0.64004  -0.59893
 Alpha  occ. eigenvalues --   -0.51278  -0.46978  -0.46296  -0.45110  -0.40660
 Alpha  occ. eigenvalues --   -0.39748  -0.39571  -0.38353  -0.35784  -0.31961
 Alpha  occ. eigenvalues --   -0.30986  -0.30585  -0.24524
 Alpha virt. eigenvalues --    0.01986   0.02233   0.04106   0.06913   0.08320
 Alpha virt. eigenvalues --    0.08579   0.11398   0.12075   0.13864   0.16924
 Alpha virt. eigenvalues --    0.17180   0.18481   0.24881   0.26420   0.27545
 Alpha virt. eigenvalues --    0.28081   0.28720   0.29613   0.30769   0.31716
 Alpha virt. eigenvalues --    0.32070   0.33974   0.34299   0.34857   0.38772
 Alpha virt. eigenvalues --    0.40513   0.41597   0.44356   0.46863   0.47331
 Alpha virt. eigenvalues --    0.48046   0.50359   0.52204   0.54396   0.55665
 Alpha virt. eigenvalues --    0.56959   0.57811   0.58878   0.60030   0.60543
 Alpha virt. eigenvalues --    0.61331   0.62627   0.65605   0.66525   0.69503
 Alpha virt. eigenvalues --    0.74291   0.74610   0.78664   0.91118   0.94944
 Alpha virt. eigenvalues --    0.96663   1.00187   1.02680   1.04723   1.08627
 Alpha virt. eigenvalues --    1.17172   1.29035   1.34129   1.35446   1.38242
 Alpha virt. eigenvalues --    1.41217   1.44755   1.46699   1.48823   1.50725
 Alpha virt. eigenvalues --    1.51349   1.53819   1.55116   1.57359   1.60537
 Alpha virt. eigenvalues --    1.67643   1.68237   1.73030   1.75991   1.82331
 Alpha virt. eigenvalues --    1.85556   1.87056   1.89841   1.94625   1.98020
 Alpha virt. eigenvalues --    2.03016   2.04108   2.07463   2.11589   2.16034
 Alpha virt. eigenvalues --    2.18553   2.19412   2.19933   2.26809   2.27770
 Alpha virt. eigenvalues --    2.31110   2.31880   2.35474   2.36391   2.38287
 Alpha virt. eigenvalues --    2.39416   2.42082   2.43282   2.44358   2.46171
 Alpha virt. eigenvalues --    2.47169   2.48466   2.50989   2.52228   2.53512
 Alpha virt. eigenvalues --    2.55061   2.57156   2.60054   2.63001   2.63499
 Alpha virt. eigenvalues --    2.63785   2.67677   2.70139   2.76994   2.78730
 Alpha virt. eigenvalues --    2.82909   2.85016   2.87702   3.00095   3.22049
 Alpha virt. eigenvalues --    3.31188   3.37788   3.41587   3.80945   3.82911
 Alpha virt. eigenvalues --    3.85471   3.99834   4.07551   4.20645   9.59796
 Alpha virt. eigenvalues --    9.65202  23.63822  23.73658  23.85896  23.95383
 Alpha virt. eigenvalues --   25.46772  25.52361  25.58707  25.68466  26.48942
 Alpha virt. eigenvalues --   26.64663 215.55881 215.62531
  Beta  occ. eigenvalues -- -101.56195-101.54871 -10.24470 -10.23501 -10.19835
  Beta  occ. eigenvalues --  -10.17644  -9.47547  -9.46386  -7.23949  -7.23042
  Beta  occ. eigenvalues --   -7.23022  -7.22806  -7.21877  -7.21865  -0.89854
  Beta  occ. eigenvalues --   -0.86374  -0.77669  -0.73342  -0.62659  -0.59184
  Beta  occ. eigenvalues --   -0.50984  -0.46559  -0.45682  -0.44341  -0.40282
  Beta  occ. eigenvalues --   -0.39392  -0.38873  -0.38216  -0.33896  -0.31788
  Beta  occ. eigenvalues --   -0.30887  -0.30370
  Beta virt. eigenvalues --   -0.10115   0.02306   0.03259   0.04150   0.06957
  Beta virt. eigenvalues --    0.08492   0.08771   0.11498   0.12262   0.14001
  Beta virt. eigenvalues --    0.17148   0.17549   0.19432   0.25120   0.26693
  Beta virt. eigenvalues --    0.27669   0.28250   0.28995   0.29712   0.31012
  Beta virt. eigenvalues --    0.31833   0.32272   0.34300   0.34779   0.35365
  Beta virt. eigenvalues --    0.39182   0.42050   0.43625   0.44680   0.47253
  Beta virt. eigenvalues --    0.47834   0.49165   0.50760   0.52681   0.54484
  Beta virt. eigenvalues --    0.56094   0.57316   0.57978   0.59019   0.60193
  Beta virt. eigenvalues --    0.61645   0.61855   0.62794   0.66135   0.67016
  Beta virt. eigenvalues --    0.69884   0.74581   0.75067   0.79036   0.91918
  Beta virt. eigenvalues --    0.95090   0.97215   1.00634   1.02999   1.04986
  Beta virt. eigenvalues --    1.08932   1.17998   1.30215   1.34730   1.35914
  Beta virt. eigenvalues --    1.38982   1.42573   1.44801   1.47649   1.49542
  Beta virt. eigenvalues --    1.50858   1.52607   1.54062   1.55663   1.57903
  Beta virt. eigenvalues --    1.61470   1.68357   1.68505   1.73611   1.76884
  Beta virt. eigenvalues --    1.83351   1.85901   1.88168   1.90903   1.95059
  Beta virt. eigenvalues --    1.98380   2.03230   2.04744   2.08000   2.12024
  Beta virt. eigenvalues --    2.16586   2.18805   2.20044   2.20238   2.26948
  Beta virt. eigenvalues --    2.27954   2.31568   2.32406   2.35703   2.36746
  Beta virt. eigenvalues --    2.38424   2.39611   2.42267   2.43451   2.44547
  Beta virt. eigenvalues --    2.46354   2.47498   2.48690   2.51144   2.52621
  Beta virt. eigenvalues --    2.53774   2.55254   2.57278   2.60297   2.63517
  Beta virt. eigenvalues --    2.63663   2.64131   2.69283   2.70269   2.77899
  Beta virt. eigenvalues --    2.78916   2.83111   2.86360   2.88334   3.01192
  Beta virt. eigenvalues --    3.22676   3.31536   3.38956   3.41890   3.80978
  Beta virt. eigenvalues --    3.82961   3.85503   4.00358   4.08190   4.20858
  Beta virt. eigenvalues --    9.59946   9.65233  23.65365  23.73894  23.85892
  Beta virt. eigenvalues --   23.95394  25.46981  25.52559  25.58737  25.68475
  Beta virt. eigenvalues --   26.48998  26.64668 215.55947 215.62546
          Condensed to atoms (all electrons):
               1          2          3          4          5          6
     1  C    5.232920   0.393708   0.355541  -0.037346  -0.030773  -0.062000
     2  H    0.393708   0.553205  -0.044834   0.006940  -0.003624  -0.008524
     3  C    0.355541  -0.044834   5.046491   0.397414   0.402563   0.327779
     4  H   -0.037346   0.006940   0.397414   0.549938  -0.027082  -0.029251
     5  H   -0.030773  -0.003624   0.402563  -0.027082   0.547231  -0.039697
     6  C   -0.062000  -0.008524   0.327779  -0.029251  -0.039697   5.066418
     7  H   -0.014012   0.000561  -0.040591  -0.002477   0.007322   0.403975
     8  C    0.008681   0.000029  -0.063481  -0.004466  -0.005804   0.339211
     9  H   -0.000036   0.000003  -0.007160  -0.000411   0.004560  -0.038859
    10  H   -0.000460   0.000041   0.007760  -0.000009  -0.000092  -0.032585
    11  H    0.000075  -0.000008  -0.003665   0.002430  -0.000247  -0.028146
    12  Cl   0.203747  -0.059412  -0.072809  -0.009402   0.009797  -0.022593
    13  Cl  -0.021314  -0.001304  -0.081908   0.009351  -0.005794   0.259387
               7          8          9         10         11         12
     1  C   -0.014012   0.008681  -0.000036  -0.000460   0.000075   0.203747
     2  H    0.000561   0.000029   0.000003   0.000041  -0.000008  -0.059412
     3  C   -0.040591  -0.063481  -0.007160   0.007760  -0.003665  -0.072809
     4  H   -0.002477  -0.004466  -0.000411  -0.000009   0.002430  -0.009402
     5  H    0.007322  -0.005804   0.004560  -0.000092  -0.000247   0.009797
     6  C    0.403975   0.339211  -0.038859  -0.032585  -0.028146  -0.022593
     7  H    0.570310  -0.038955   0.007910  -0.005712  -0.003594  -0.002438
     8  C   -0.038955   4.890382   0.414371   0.411117   0.393156   0.001613
     9  H    0.007910   0.414371   0.556077  -0.024678  -0.028383  -0.000126
    10  H   -0.005712   0.411117  -0.024678   0.544287  -0.025635   0.000049
    11  H   -0.003594   0.393156  -0.028383  -0.025635   0.570554   0.000243
    12  Cl  -0.002438   0.001613  -0.000126   0.000049   0.000243  17.118164
    13  Cl  -0.057841  -0.090540  -0.005826  -0.006856   0.010203  -0.003028
              13
     1  C   -0.021314
     2  H   -0.001304
     3  C   -0.081908
     4  H    0.009351
     5  H   -0.005794
     6  C    0.259387
     7  H   -0.057841
     8  C   -0.090540
     9  H   -0.005826
    10  H   -0.006856
    11  H    0.010203
    12  Cl  -0.003028
    13  Cl  17.182520
          Atomic-Atomic Spin Densities.
               1          2          3          4          5          6
     1  C    1.068261  -0.005210  -0.024730  -0.004296  -0.001993  -0.026995
     2  H   -0.005210  -0.014287   0.004045   0.000066   0.000552  -0.003246
     3  C   -0.024730   0.004045  -0.030766   0.005883   0.004111   0.000601
     4  H   -0.004296   0.000066   0.005883   0.008634   0.000691  -0.006763
     5  H   -0.001993   0.000552   0.004111   0.000691   0.001674  -0.002957
     6  C   -0.026995  -0.003246   0.000601  -0.006763  -0.002957   0.083414
     7  H   -0.000879  -0.000093   0.001814  -0.000255  -0.000080  -0.000445
     8  C    0.001561   0.000139   0.000021   0.000863   0.000237  -0.003542
     9  H    0.000174   0.000020   0.000034   0.000126   0.000063  -0.000880
    10  H   -0.000233  -0.000017  -0.000083  -0.000120  -0.000024  -0.000851
    11  H    0.000123   0.000004  -0.000100   0.000237   0.000030  -0.000313
    12  Cl  -0.103482   0.003348   0.004779   0.000998  -0.000076   0.003184
    13  Cl  -0.002055   0.000892   0.000546   0.000039   0.000016  -0.000504
               7          8          9         10         11         12
     1  C   -0.000879   0.001561   0.000174  -0.000233   0.000123  -0.103482
     2  H   -0.000093   0.000139   0.000020  -0.000017   0.000004   0.003348
     3  C    0.001814   0.000021   0.000034  -0.000083  -0.000100   0.004779
     4  H   -0.000255   0.000863   0.000126  -0.000120   0.000237   0.000998
     5  H   -0.000080   0.000237   0.000063  -0.000024   0.000030  -0.000076
     6  C   -0.000445  -0.003542  -0.000880  -0.000851  -0.000313   0.003184
     7  H   -0.003387   0.000171  -0.000045   0.000210   0.000012   0.001702
     8  C    0.000171   0.003121   0.000455   0.000445   0.000188  -0.000506
     9  H   -0.000045   0.000455   0.000556  -0.000682   0.000237  -0.000027
    10  H    0.000210   0.000445  -0.000682   0.005055  -0.000616   0.000112
    11  H    0.000012   0.000188   0.000237  -0.000616   0.000163  -0.000077
    12  Cl   0.001702  -0.000506  -0.000027   0.000112  -0.000077   0.180120
    13  Cl   0.000129   0.000662   0.000189  -0.000264   0.000028   0.000859
              13
     1  C   -0.002055
     2  H    0.000892
     3  C    0.000546
     4  H    0.000039
     5  H    0.000016
     6  C   -0.000504
     7  H    0.000129
     8  C    0.000662
     9  H    0.000189
    10  H   -0.000264
    11  H    0.000028
    12  Cl   0.000859
    13  Cl   0.001125
 Mulliken charges and spin densities:
               1          2
     1  C   -0.028731   0.900246
     2  H    0.163219  -0.013786
     3  C   -0.223100  -0.033845
     4  H    0.144371   0.006104
     5  H    0.141638   0.002245
     6  C   -0.135115   0.040702
     7  H    0.175543  -0.001147
     8  C   -0.255313   0.003816
     9  H    0.122557   0.000221
    10  H    0.132772   0.002931
    11  H    0.113017  -0.000085
    12  Cl  -0.163807   0.090935
    13  Cl  -0.187051   0.001663
 Sum of Mulliken charges =  -0.00000   1.00000
 Mulliken charges and spin densities with hydrogens summed into heavy atoms:
               1          2
     1  C    0.134488   0.886460
     3  C    0.062908  -0.025496
     6  C    0.040428   0.039555
     8  C    0.113033   0.006883
    12  Cl  -0.163807   0.090935
    13  Cl  -0.187051   0.001663
 APT charges:
               1
     1  C    0.330256
     2  H   -0.089426
     3  C   -1.240998
     4  H    0.598935
     5  H    0.538964
     6  C   -0.043263
     7  H    0.136923
     8  C   -1.032998
     9  H    0.535756
    10  H    0.011854
    11  H    0.579944
    12  Cl  -0.238492
    13  Cl  -0.087454
 Sum of APT charges =  -0.00000
 APT charges with hydrogens summed into heavy atoms:
               1
     1  C    0.240829
     3  C   -0.103099
     6  C    0.093660
     8  C    0.094555
    12  Cl  -0.238492
    13  Cl  -0.087454
 Electronic spatial extent (au):  <R**2>=           2985.1028
 Charge=              0.0000 electrons
 Dipole moment (field-independent basis, Debye):
    X=             -0.1151    Y=              1.3196    Z=              1.7278  Tot=              2.1771
 Quadrupole moment (field-independent basis, Debye-Ang):
   XX=            -53.0728   YY=            -49.4706   ZZ=            -51.2680
   XY=             -1.3157   XZ=             -7.3817   YZ=              3.6987
 Traceless Quadrupole moment (field-independent basis, Debye-Ang):
   XX=             -1.8023   YY=              1.7999   ZZ=              0.0025
   XY=             -1.3157   XZ=             -7.3817   YZ=              3.6987
 Octapole moment (field-independent basis, Debye-Ang**2):
  XXX=            452.5996  YYY=            -90.7957  ZZZ=            -92.9376  XYY=            140.8858
  XXY=            -32.7842  XXZ=             -2.3591  XZZ=            143.9916  YZZ=            -25.6412
  YYZ=            -28.8071  XYZ=            -10.3054
 Hexadecapole moment (field-independent basis, Debye-Ang**3):
 XXXX=          -3000.2592 YYYY=           -399.0283 ZZZZ=           -758.1124 XXXY=            322.2926
 XXXZ=             -2.6204 YYYX=            291.0217 YYYZ=            -46.0403 ZZZX=             97.1739
 ZZZY=            -48.7057 XXYY=           -537.7029 XXZZ=           -606.5869 YYZZ=           -192.3975
 XXYZ=             17.0079 YYXZ=             28.4801 ZZXY=             90.2612
 N-N= 3.564451746186D+02 E-N=-3.263617625905D+03  KE= 1.074409871237D+03
  Exact polarizability:   0.000   0.000   0.000   0.000   0.000   0.000
 Approx polarizability:  90.450  -1.158 103.289  -1.508  -6.176 104.456
                          Isotropic Fermi Contact Couplings
        Atom                 a.u.       MegaHertz       Gauss      10(-4) cm-1
     1  C(13)              0.32131     361.20932     128.88847     120.48646
     2  H(1)               0.00265      11.84387       4.22619       3.95069
     3  C(13)             -0.00169      -1.89583      -0.67648      -0.63238
     4  H(1)               0.00357      15.96428       5.69645       5.32511
     5  H(1)               0.00139       6.21964       2.21932       2.07465
     6  C(13)              0.02861      32.16256      11.47640      10.72827
     7  H(1)              -0.00087      -3.89284      -1.38906      -1.29851
     8  C(13)              0.00041       0.46396       0.16555       0.15476
     9  H(1)               0.00011       0.50296       0.17947       0.16777
    10  H(1)               0.00152       6.79202       2.42356       2.26557
    11  H(1)              -0.00003      -0.14027      -0.05005      -0.04679
    12  Cl(35)             0.02518      11.04041       3.93949       3.68268
    13  Cl(35)             0.00421       1.84521       0.65842       0.61550
 --------------------------------------------------------
       Center         ----  Spin Dipole Couplings  ----
                      3XX-RR        3YY-RR        3ZZ-RR
 --------------------------------------------------------
     1   Atom        0.986822     -0.496320     -0.490502
     2   Atom       -0.004901      0.063161     -0.058260
     3   Atom        0.007274     -0.014266      0.006991
     4   Atom       -0.008035      0.008682     -0.000647
     5   Atom       -0.007270     -0.010943      0.018213
     6   Atom        0.070583     -0.034607     -0.035976
     7   Atom        0.005284     -0.004688     -0.000597
     8   Atom        0.000407     -0.003192      0.002784
     9   Atom       -0.000750     -0.002228      0.002977
    10   Atom        0.001778     -0.001562     -0.000216
    11   Atom       -0.000634      0.000736     -0.000102
    12   Atom        0.930629     -0.427194     -0.503435
    13   Atom       -0.002284     -0.019358      0.021641
 --------------------------------------------------------
                        XY            XZ            YZ
 --------------------------------------------------------
     1   Atom       -0.101355      0.147806     -0.007968
     2   Atom       -0.027219      0.004619      0.001979
     3   Atom        0.014792      0.030168      0.017520
     4   Atom        0.003858      0.002730      0.013801
     5   Atom        0.000422      0.004306      0.002444
     6   Atom        0.022016      0.004259      0.001566
     7   Atom        0.006820      0.001259     -0.001854
     8   Atom        0.005173      0.008417      0.005719
     9   Atom        0.000749      0.002135      0.000833
    10   Atom        0.000789      0.001557      0.001159
    11   Atom        0.001384      0.001843      0.002568
    12   Atom       -0.007147     -0.044656      0.078668
    13   Atom        0.002744      0.014053      0.003260
 --------------------------------------------------------


 ---------------------------------------------------------------------------------
              Anisotropic Spin Dipole Couplings in Principal Axis System
 ---------------------------------------------------------------------------------

       Atom             a.u.   MegaHertz   Gauss  10(-4) cm-1        Axes

              Baa    -0.5064   -67.960   -24.250   -22.669 -0.1191 -0.5329  0.8378
     1 C(13)  Bbb    -0.5019   -67.348   -24.032   -22.465  0.0041  0.8435  0.5371
              Bcc     1.0083   135.308    48.281    45.134  0.9929 -0.0674  0.0983
 
              Baa    -0.0588   -31.388   -11.200   -10.470 -0.1051 -0.0396  0.9937
     2 H(1)   Bbb    -0.0139    -7.406    -2.643    -2.470  0.9378  0.3285  0.1122
              Bcc     0.0727    38.794    13.843    12.940 -0.3308  0.9437  0.0026
 
              Baa    -0.0248    -3.333    -1.189    -1.112 -0.3362 -0.6534  0.6782
     3 C(13)  Bbb    -0.0211    -2.836    -1.012    -0.946  0.6763 -0.6686 -0.3090
              Bcc     0.0460     6.169     2.201     2.058  0.6554  0.3549  0.6667
 
              Baa    -0.0106    -5.630    -2.009    -1.878  0.0181 -0.5853  0.8106
     4 H(1)   Bbb    -0.0088    -4.721    -1.685    -1.575  0.9853 -0.1272 -0.1138
              Bcc     0.0194    10.351     3.693     3.453  0.1698  0.8008  0.5744
 
              Baa    -0.0111    -5.948    -2.122    -1.984 -0.0194  0.9966 -0.0801
     5 H(1)   Bbb    -0.0080    -4.257    -1.519    -1.420  0.9866  0.0061 -0.1628
              Bcc     0.0191    10.204     3.641     3.404  0.1617  0.0822  0.9834
 
              Baa    -0.0392    -5.259    -1.876    -1.754 -0.1833  0.9573 -0.2237
     6 C(13)  Bbb    -0.0360    -4.830    -1.724    -1.611 -0.0827  0.2117  0.9738
              Bcc     0.0752    10.089     3.600     3.365  0.9796  0.1970  0.0403
 
              Baa    -0.0088    -4.672    -1.667    -1.558 -0.4405  0.8584  0.2630
     7 H(1)   Bbb     0.0000     0.000     0.000     0.000  0.0912 -0.2487  0.9643
              Bcc     0.0088     4.672     1.667     1.558  0.8931  0.4488  0.0312
 
              Baa    -0.0070    -0.937    -0.334    -0.313  0.7918 -0.4375 -0.4262
     8 C(13)  Bbb    -0.0066    -0.892    -0.318    -0.298  0.1218  0.7968 -0.5918
              Bcc     0.0136     1.829     0.653     0.610  0.5985  0.4167  0.6842
 
              Baa    -0.0025    -1.356    -0.484    -0.452 -0.4042  0.9145  0.0184
     9 H(1)   Bbb    -0.0016    -0.846    -0.302    -0.282  0.8142  0.3689 -0.4483
              Bcc     0.0041     2.203     0.786     0.735  0.4168  0.1663  0.8937
 
              Baa    -0.0022    -1.191    -0.425    -0.397  0.0324  0.8555 -0.5168
    10 H(1)   Bbb    -0.0007    -0.399    -0.143    -0.133 -0.5667  0.4417  0.6956
              Bcc     0.0030     1.590     0.567     0.530  0.8233  0.2703  0.4991
 
              Baa    -0.0025    -1.358    -0.485    -0.453 -0.4493 -0.4253  0.7857
    11 H(1)   Bbb    -0.0015    -0.784    -0.280    -0.261  0.7786 -0.6177  0.1108
              Bcc     0.0040     2.142     0.764     0.715  0.4382  0.6615  0.6086
 
              Baa    -0.5535   -28.970   -10.337    -9.663  0.0230 -0.5276  0.8492
    12 Cl(35) Bbb    -0.3786   -19.813    -7.070    -6.609  0.0226  0.8495  0.5271
              Bcc     0.9321    48.783    17.407    16.272  0.9995 -0.0071 -0.0315
 
              Baa    -0.0198    -1.038    -0.370    -0.346 -0.1271  0.9913 -0.0349
    13 Cl(35) Bbb    -0.0087    -0.453    -0.162    -0.151  0.8985  0.1002 -0.4274
              Bcc     0.0285     1.491     0.532     0.497  0.4202  0.0857  0.9034
 

 ---------------------------------------------------------------------------------

 SCFChk:  SCF convergence  3.54D-09 required  1.00D-08
 Entering OneElI...
 Calculate overlap and kinetic energy integrals
    NBasis = 184  MinDer = 2  MaxDer = 2
 Requested accuracy = 0.1000D-12
 PrmmSu-InSpLW:  IPartL=    0 NPrtUS=   28 NPrtUL=    1 DoSpLW=F IThBeg=    0 IThEnd=   27 NThAct=   28.
 PrsmSu:  NPrtUS=  28 ThrOK=T IAlg=1 NPAlg=1 LenDen=           0 ISkipM=0 DoSpLW=F IThBeg=    0 IThEnd=   27.
 Prism:   IPart=     0 DynPar=F LinDyn=F Incr=           1.
 PRISM was handed   287533268 working-precision words and  2740 shell-pairs
 PRISM was handed   287533268 working-precision words and  2740 shell-pairs
 PRISM was handed   287533268 working-precision words and  2740 shell-pairs
 PRISM was handed   287533268 working-precision words and  2740 shell-pairs
 PRISM was handed   287533268 working-precision words and  2740 shell-pairs
 PRISM was handed   287533268 working-precision words and  2740 shell-pairs
 PRISM was handed   287533268 working-precision words and  2740 shell-pairs
 PRISM was handed   287533268 working-precision words and  2740 shell-pairs
 PRISM was handed   287533268 working-precision words and  2740 shell-pairs
 PRISM was handed   287533268 working-precision words and  2740 shell-pairs
 PRISM was handed   287533268 working-precision words and  2740 shell-pairs
 PRISM was handed   287533268 working-precision words and  2740 shell-pairs
 PRISM was handed   287533268 working-precision words and  2740 shell-pairs
 PRISM was handed   287533268 working-precision words and  2740 shell-pairs
 PRISM was handed   287533268 working-precision words and  2740 shell-pairs
 PRISM was handed   287533268 working-precision words and  2740 shell-pairs
 PRISM was handed   287533268 working-precision words and  2740 shell-pairs
 PRISM was handed   287533268 working-precision words and  2740 shell-pairs
 PRISM was handed   287533268 working-precision words and  2740 shell-pairs
 PRISM was handed   287533268 working-precision words and  2740 shell-pairs
 PRISM was handed   287533268 working-precision words and  2740 shell-pairs
 PRISM was handed   287533268 working-precision words and  2740 shell-pairs
 PRISM was handed   287533268 working-precision words and  2740 shell-pairs
 PRISM was handed   287533268 working-precision words and  2740 shell-pairs
 PRISM was handed   287533268 working-precision words and  2740 shell-pairs
 PRISM was handed   287533268 working-precision words and  2740 shell-pairs
 PRISM was handed   287533268 working-precision words and  2740 shell-pairs
 PRISM was handed   287533268 working-precision words and  2740 shell-pairs
 IPart= 25 NShTot=          78 NBatch=          25 AvBLen=         3.1
 IPart= 17 NShTot=          87 NBatch=          26 AvBLen=         3.3
 IPart= 21 NShTot=          82 NBatch=          25 AvBLen=         3.3
 IPart= 24 NShTot=          78 NBatch=          25 AvBLen=         3.1
 IPart= 13 NShTot=          92 NBatch=          29 AvBLen=         3.2
 IPart= 12 NShTot=          93 NBatch=          29 AvBLen=         3.2
 IPart=  8 NShTot=         106 NBatch=          37 AvBLen=         2.9
 IPart= 11 NShTot=          96 NBatch=          30 AvBLen=         3.2
 IPart=  5 NShTot=         115 NBatch=          42 AvBLen=         2.7
 IPart=  3 NShTot=         121 NBatch=          46 AvBLen=         2.6
 IPart= 15 NShTot=          91 NBatch=          29 AvBLen=         3.1
 IPart= 19 NShTot=          85 NBatch=          25 AvBLen=         3.4
 IPart=  2 NShTot=         124 NBatch=          48 AvBLen=         2.6
 IPart= 23 NShTot=          81 NBatch=          25 AvBLen=         3.2
 IPart=  9 NShTot=         105 NBatch=          36 AvBLen=         2.9
 IPart=  6 NShTot=         112 NBatch=          40 AvBLen=         2.8
 IPart= 14 NShTot=          92 NBatch=          29 AvBLen=         3.2
 IPart=  4 NShTot=         117 NBatch=          43 AvBLen=         2.7
 IPart=  7 NShTot=         109 NBatch=          37 AvBLen=         2.9
 IPart= 27 NShTot=          76 NBatch=          23 AvBLen=         3.3
 IPart= 26 NShTot=          76 NBatch=          23 AvBLen=         3.3
 IPart= 16 NShTot=          88 NBatch=          27 AvBLen=         3.3
 IPart= 18 NShTot=          87 NBatch=          26 AvBLen=         3.3
 IPart= 22 NShTot=          82 NBatch=          25 AvBLen=         3.3
 IPart= 20 NShTot=          83 NBatch=          25 AvBLen=         3.3
 IPart=  1 NShTot=         140 NBatch=          64 AvBLen=         2.2
 IPart=  0 NShTot=         142 NBatch=          66 AvBLen=         2.2
 IPart= 10 NShTot=         102 NBatch=          33 AvBLen=         3.1
 PrSmSu:  NxtVal=             29.
 Entering OneElI...
 Calculate potential energy integrals
    NBasis = 184  MinDer = 2  MaxDer = 2
 Requested accuracy = 0.1000D-12
 PrmmSu-InSpLW:  IPartL=    0 NPrtUS=   28 NPrtUL=    1 DoSpLW=F IThBeg=    0 IThEnd=   27 NThAct=   28.
 PrsmSu:  NPrtUS=  28 ThrOK=T IAlg=1 NPAlg=1 LenDen=           0 ISkipM=0 DoSpLW=F IThBeg=    0 IThEnd=   27.
 Prism:   IPart=     0 DynPar=F LinDyn=F Incr=          11.
 PRISM was handed   287544589 working-precision words and  2543 shell-pairs
 PRISM was handed   287544589 working-precision words and  2543 shell-pairs
 PRISM was handed   287544589 working-precision words and  2543 shell-pairs
 PRISM was handed   287544589 working-precision words and  2543 shell-pairs
 PRISM was handed   287544589 working-precision words and  2543 shell-pairs
 PRISM was handed   287544589 working-precision words and  2543 shell-pairs
 PRISM was handed   287544589 working-precision words and  2543 shell-pairs
 PRISM was handed   287544589 working-precision words and  2543 shell-pairs
 PRISM was handed   287544589 working-precision words and  2543 shell-pairs
 PRISM was handed   287544589 working-precision words and  2543 shell-pairs
 PRISM was handed   287544589 working-precision words and  2543 shell-pairs
 PRISM was handed   287544589 working-precision words and  2543 shell-pairs
 PRISM was handed   287544589 working-precision words and  2543 shell-pairs
 PRISM was handed   287544589 working-precision words and  2543 shell-pairs
 PRISM was handed   287544589 working-precision words and  2543 shell-pairs
 PRISM was handed   287544589 working-precision words and  2543 shell-pairs
 PRISM was handed   287544589 working-precision words and  2543 shell-pairs
 PRISM was handed   287544589 working-precision words and  2543 shell-pairs
 PRISM was handed   287544589 working-precision words and  2543 shell-pairs
 PRISM was handed   287544589 working-precision words and  2543 shell-pairs
 PRISM was handed   287544589 working-precision words and  2543 shell-pairs
 PRISM was handed   287544589 working-precision words and  2543 shell-pairs
 PRISM was handed   287544589 working-precision words and  2543 shell-pairs
 PRISM was handed   287544589 working-precision words and  2543 shell-pairs
 PRISM was handed   287544589 working-precision words and  2543 shell-pairs
 PRISM was handed   287544589 working-precision words and  2543 shell-pairs
 PRISM was handed   287544589 working-precision words and  2543 shell-pairs
 PRISM was handed   287544589 working-precision words and  2543 shell-pairs
 IPart= 25 NShTot=         949 NBatch=          73 AvBLen=        13.0
 IPart= 23 NShTot=        1001 NBatch=          77 AvBLen=        13.0
 IPart= 15 NShTot=        1131 NBatch=          87 AvBLen=        13.0
 IPart= 21 NShTot=        1001 NBatch=          77 AvBLen=        13.0
 IPart=  4 NShTot=        1365 NBatch=         105 AvBLen=        13.0
 IPart= 24 NShTot=         988 NBatch=          76 AvBLen=        13.0
 IPart= 19 NShTot=        1040 NBatch=          80 AvBLen=        13.0
 IPart= 13 NShTot=        1131 NBatch=          87 AvBLen=        13.0
 IPart= 20 NShTot=        1040 NBatch=          80 AvBLen=        13.0
 IPart= 22 NShTot=        1001 NBatch=          77 AvBLen=        13.0
 IPart= 14 NShTot=        1131 NBatch=          87 AvBLen=        13.0
 IPart= 16 NShTot=        1092 NBatch=          84 AvBLen=        13.0
 IPart= 18 NShTot=        1066 NBatch=          82 AvBLen=        13.0
 IPart= 27 NShTot=         923 NBatch=          71 AvBLen=        13.0
 IPart= 12 NShTot=        1157 NBatch=          89 AvBLen=        13.0
 IPart= 26 NShTot=         923 NBatch=          71 AvBLen=        13.0
 IPart=  2 NShTot=        1469 NBatch=         113 AvBLen=        13.0
 IPart=  8 NShTot=        1248 NBatch=          96 AvBLen=        13.0
 IPart=  7 NShTot=        1274 NBatch=          98 AvBLen=        13.0
 IPart=  5 NShTot=        1352 NBatch=         104 AvBLen=        13.0
 IPart= 17 NShTot=        1079 NBatch=          83 AvBLen=        13.0
 IPart=  9 NShTot=        1235 NBatch=          95 AvBLen=        13.0
 IPart=  1 NShTot=        1651 NBatch=         127 AvBLen=        13.0
 IPart=  3 NShTot=        1417 NBatch=         109 AvBLen=        13.0
 IPart= 11 NShTot=        1170 NBatch=          90 AvBLen=        13.0
 IPart=  6 NShTot=        1326 NBatch=         102 AvBLen=        13.0
 IPart=  0 NShTot=        1690 NBatch=         130 AvBLen=        13.0
 IPart= 10 NShTot=        1209 NBatch=          93 AvBLen=        13.0
 PrSmSu:  NxtVal=            309.
 Polarizability after L701:
                1             2             3 
      1  0.000000D+00
      2  0.000000D+00  0.000000D+00
      3  0.000000D+00  0.000000D+00  0.000000D+00
 Dipole Derivatives after L701:
                 1             2             3             4             5 
      1   0.166857D+01 -0.145200D+01 -0.167856D+00 -0.943395D+00  0.171280D+01
      2   0.481205D-01 -0.446184D+00 -0.237461D-01 -0.161176D+00  0.469596D+00
      3   0.432490D-01 -0.528585D-01 -0.231615D+00 -0.140419D-01  0.980412D-02
                 6             7             8             9            10 
      1  -0.386204D-01 -0.222512D+01  0.659848D+00  0.909791D+00  0.745447D+00
      2   0.715485D-02  0.502842D+00 -0.782515D+00  0.687528D-02 -0.300902D+00
      3   0.205520D+00  0.676700D+00 -0.629419D-02 -0.715362D+00 -0.182926D+00
                11            12            13            14            15 
      1  -0.170647D+01  0.141771D+00  0.716134D+00  0.952689D+00 -0.144374D+01
      2   0.952188D+00 -0.581464D-01 -0.609442D-01  0.207869D-01  0.162172D+00
      3   0.527191D+00  0.991704D-01 -0.314005D+00 -0.488425D+00  0.879971D+00
                16            17            18            19            20 
      1   0.408874D+00  0.399766D+00 -0.337263D+00 -0.805025D-01 -0.410427D+00
      2  -0.265380D+00 -0.490733D+00  0.369810D+00  0.196073D+00  0.493512D+00
      3  -0.140907D+00 -0.530802D-01 -0.479306D-01  0.710252D-01  0.139406D+00
                21            22            23            24            25 
      1   0.730664D+00 -0.490853D+00  0.496665D+00  0.749413D+00  0.418057D+00
      2  -0.506116D+00 -0.239945D+00 -0.110928D+01 -0.398996D+00 -0.172446D+00
      3  -0.224105D-02 -0.290465D+00 -0.427226D+00 -0.149886D+01 -0.530263D+00
                26            27            28            29            30 
      1   0.457902D+00 -0.738480D+00 -0.136121D+00  0.102811D-01  0.829898D-02
      2  -0.141615D+00  0.399386D+00  0.765153D+00  0.898180D-01 -0.211930D-01
      3  -0.753681D+00  0.133082D+01  0.113515D+01 -0.291981D-01  0.818655D-01
                31            32            33            34            35 
      1   0.401141D+00 -0.855325D+00  0.344820D-02 -0.527290D+00 -0.118746D+00
      2  -0.419426D+00  0.124171D+01 -0.441382D-02  0.731637D-01 -0.108063D+00
      3  -0.370488D+00  0.101439D+01  0.969838D-01 -0.419945D-01  0.206181D-02
                36            37            38            39 
      1   0.137589D+00  0.450594D-01 -0.146977D+00  0.449896D-01
      2   0.430642D-01  0.348663D-01 -0.189219D+00  0.241491D-01
      3  -0.801227D-01 -0.410353D-01  0.117905D+00 -0.118202D+00
 Hessian after L701:
                1             2             3             4             5 
      1  0.148906D+02
      2 -0.118938D+01  0.129226D+02
      3  0.253693D+00  0.169603D+01  0.787374D+01
      4 -0.493773D+01 -0.991660D+00  0.361566D-01  0.464308D+01
      5 -0.145793D+01 -0.245195D+01 -0.257635D+00  0.122496D+01  0.199868D+01
      6  0.233684D-01 -0.161057D+00 -0.543606D+01 -0.241854D+00  0.294031D+00
      7 -0.580816D+01  0.977767D+00  0.177908D+01  0.189774D+00  0.858709D-01
      8  0.111311D+01 -0.552283D+01  0.222270D+01 -0.482808D-01 -0.617899D-01
      9  0.207114D+01  0.223574D+01 -0.252543D+01 -0.208702D-01 -0.187516D+00
     10  0.114544D+00 -0.786145D-01 -0.402204D-01 -0.304979D-01 -0.213991D-01
     11 -0.737970D-01  0.717386D-01 -0.624150D-01 -0.143669D-01  0.123559D+00
     12 -0.575187D-01 -0.135088D+00  0.154123D-01 -0.545113D-02  0.624732D-01
     13  0.880025D-01  0.126823D-01 -0.372610D-01  0.135700D-01 -0.591472D-03
     14 -0.188536D-02  0.886362D-01 -0.691454D-01  0.270173D-02 -0.771463D-02
     15 -0.340717D-01 -0.265527D-01 -0.517061D-01 -0.891519D-02 -0.127662D-01
     16  0.477746D+00  0.513861D-01  0.222459D+00 -0.374323D-01 -0.439447D-03
     17  0.383370D-01  0.216212D-01  0.464253D-02 -0.367964D-01  0.210346D-01
     18  0.224754D+00 -0.617542D-02  0.146954D+00 -0.444931D-01 -0.134016D-02
     19 -0.627688D-01 -0.652876D-01 -0.367684D-02 -0.520661D-03  0.160140D-01
     20 -0.457298D-01  0.444265D-02 -0.195450D-02  0.492563D-02  0.136642D-01
     21 -0.462841D-01 -0.156642D-01  0.368807D-01  0.205957D-02 -0.964974D-02
     22  0.106037D+00  0.124167D+00  0.233821D+00 -0.723246D-02  0.194815D-01
     23  0.140608D+00 -0.780330D-01  0.129454D+00  0.348936D-02  0.625853D-02
     24  0.242976D+00  0.122293D+00  0.767199D-01  0.444585D-02  0.179987D-01
     25 -0.701581D-02  0.311417D-02  0.753533D-02 -0.544859D-03 -0.519388D-03
     26 -0.373727D-02 -0.101814D-01 -0.301422D-02  0.133189D-02 -0.307846D-02
     27  0.294597D-01  0.382877D-02  0.247852D-01 -0.218943D-02  0.981664D-02
     28  0.179305D-01  0.100189D-02  0.119817D-01 -0.200918D-02  0.101703D-01
     29  0.563198D-04 -0.591448D-02  0.745644D-03  0.104677D-02  0.101500D-02
     30  0.665600D-03 -0.689966D-04 -0.377154D-02  0.112395D-02  0.224947D-02
     31 -0.676232D-02  0.821329D-02  0.726293D-02 -0.367238D-03 -0.647076D-03
     32  0.284986D-01  0.104484D-01  0.258306D-01 -0.263442D-02  0.978341D-02
     33  0.129110D-01  0.135511D-01  0.216074D-02 -0.109358D-03  0.262834D-02
     34 -0.542540D+01  0.158270D+01 -0.283858D+01  0.841203D-01 -0.140108D-01
     35  0.173406D+01 -0.476151D+01 -0.359502D+01 -0.158293D+00  0.462992D+00
     36 -0.311943D+01 -0.354460D+01  0.120260D+00  0.162903D+00  0.168832D-02
     37  0.552972D+00 -0.436098D+00  0.367748D+00  0.857930D-01  0.139036D+00
     38 -0.282215D+00 -0.289112D+00 -0.902179D-01  0.135732D-01 -0.112454D+00
     39  0.398341D+00 -0.182239D+00 -0.279952D+00  0.117193D+00  0.780216D-01
                6             7             8             9            10 
      6  0.553211D+01
      7  0.540679D-01  0.157002D+02
      8 -0.206192D+00  0.198356D+00  0.197289D+02
      9  0.658787D-01 -0.157550D+01 -0.879611D+00  0.166703D+02
     10 -0.109289D-01 -0.487134D+01 -0.105492D+01  0.114324D-01  0.466272D+01
     11  0.583203D-01 -0.927780D+00 -0.256870D+01 -0.544931D-01  0.124379D+01
     12 -0.949983D-02 -0.398387D-01  0.906487D-01 -0.526997D+01  0.350959D-01
     13  0.631145D-02 -0.488222D+01  0.599977D+00 -0.982671D+00  0.103500D+00
     14 -0.258608D-01  0.462974D+00 -0.460026D+01 -0.110088D+01 -0.572211D-02
     15 -0.289598D-01 -0.837370D+00 -0.120964D+01 -0.324004D+01 -0.720066D-02
     16 -0.321517D-01 -0.885750D+00 -0.186859D+00 -0.868493D-02 -0.110305D-01
     17 -0.277923D-01 -0.126800D+00 -0.669998D+01 -0.370629D-01  0.977343D-01
     18 -0.234064D-01  0.103191D+00 -0.486288D-01 -0.673378D+01  0.688485D-02
     19  0.118761D-02 -0.105374D+00 -0.150897D-01  0.165592D+00 -0.233877D-01
     20  0.208198D-02 -0.278891D-01  0.185735D+00  0.148997D-01  0.102296D-01
     21 -0.547056D-02  0.100562D+00 -0.164700D-01  0.131583D+00  0.441291D-02
     22  0.953208D-02  0.140175D+00  0.711976D-01  0.104781D+00  0.426997D-02
     23  0.940847D-02 -0.204132D-01  0.513211D-01 -0.102574D-01 -0.128200D-01
     24 -0.441325D-03  0.303506D-02  0.113251D-01  0.268850D-01  0.747195D-02
     25  0.615488D-03 -0.761906D-02 -0.574753D-02 -0.183172D-01 -0.179568D-02
     26  0.299246D-03 -0.185396D-01 -0.937422D-02 -0.324103D-01 -0.509674D-02
     27  0.266366D-02 -0.873475D-02 -0.343609D-02 -0.713019D-02  0.822050D-02
     28  0.234578D-02  0.170643D+00  0.523063D-01  0.903920D-01  0.127291D-01
     29  0.117282D-02  0.515842D-01 -0.443797D-01  0.178048D-01 -0.111122D-02
     30 -0.196759D-04  0.835035D-01  0.158880D-01 -0.240133D-01  0.322490D-02
     31  0.298951D-03 -0.147070D-01  0.868689D-02  0.335957D-03  0.156029D-01
     32  0.235339D-02  0.264242D-01  0.286645D-01  0.291161D-01  0.251924D-01
     33 -0.122599D-03  0.582318D-03  0.704532D-02 -0.227706D-01  0.220495D-01
     34  0.400560D-01 -0.339614D+00 -0.771479D-01  0.708650D-01 -0.360876D-01
     35  0.436078D-01 -0.110748D+00 -0.395341D+00  0.520874D-01 -0.117731D-01
     36 -0.714803D-01  0.320397D+00 -0.121103D-01  0.111011D+01 -0.434046D-01
     37  0.147151D+00  0.714034D+00 -0.655592D+00  0.915071D-01  0.607801D-01
     38  0.962697D-02 -0.570807D+00 -0.919197D-01 -0.474147D-01 -0.185485D+00
     39 -0.251929D-01  0.170186D-01  0.284856D-01 -0.181573D+00  0.296152D-02
               11            12            13            14            15 
     11  0.222090D+01
     12 -0.120714D+00  0.515632D+01
     13 -0.581373D-02 -0.681240D-02  0.460457D+01
     14 -0.517547D-01  0.998816D-01 -0.543216D+00  0.457137D+01
     15  0.854280D-01  0.570696D-01  0.107726D+01  0.123892D+01  0.285586D+01
     16  0.508480D-01  0.268159D-01 -0.262052D-01 -0.166385D-01  0.454800D-01
     17  0.616780D-01 -0.924115D-02 -0.791285D-01  0.125050D+00  0.192573D-01
     18 -0.274881D-02  0.832961D-01  0.834543D-01 -0.107816D-03  0.136819D+00
     19  0.125590D-02  0.147627D-01  0.610950D-01  0.462849D-01 -0.865485D-01
     20  0.976144D-03 -0.333158D-02  0.539412D-01 -0.898708D-02 -0.455312D-01
     21  0.947861D-02  0.333362D-02 -0.862545D-01 -0.408880D-01  0.382947D-01
     22 -0.351034D-01  0.157872D-01 -0.252190D-01  0.205662D-01 -0.152585D-01
     23 -0.513648D-02 -0.484236D-02 -0.385366D-02  0.116566D-02 -0.354750D-02
     24 -0.114545D-01 -0.103338D-01 -0.209195D-02  0.194648D-02 -0.440381D-02
     25 -0.883362D-03  0.968612D-03  0.269594D-01  0.186018D-01  0.219970D-01
     26  0.464388D-02 -0.352461D-02  0.137632D-01 -0.196214D-01  0.990770D-02
     27 -0.126550D-01  0.369420D-02  0.466135D-01  0.220009D-01 -0.113482D-01
     28 -0.119913D-01  0.450899D-02  0.105273D-01  0.901199D-02 -0.850338D-02
     29 -0.137811D-02 -0.274042D-03  0.230983D-02 -0.806586D-03 -0.881070D-03
     30 -0.135864D-02 -0.147681D-02  0.239152D-03  0.000000D+00 -0.201247D-02
     31  0.417283D-02  0.168706D-01 -0.921185D-03  0.267917D-02 -0.373564D-03
     32 -0.215714D-01  0.131289D-01  0.107299D-01  0.116794D-01 -0.909193D-02
     33  0.130416D-02 -0.321685D-02  0.344578D-03  0.795103D-03 -0.355095D-02
     34 -0.192487D-01 -0.490054D-02 -0.739019D-01  0.155698D-01 -0.545669D-01
     35 -0.102491D-01  0.124378D-01  0.167933D-01 -0.589217D-01 -0.881193D-01
     36  0.116501D+00  0.581545D-01 -0.835122D-01 -0.113261D+00  0.292511D+00
     37 -0.211078D+00 -0.288466D-03  0.100245D+00 -0.109283D-01 -0.919319D-01
     38  0.175291D+00 -0.155413D-02 -0.775933D-01 -0.498313D-01  0.426257D-01
     39 -0.519265D-02 -0.827820D-01 -0.156227D-01 -0.133973D-01 -0.385322D-01
               16            17            18            19            20 
     16  0.178754D+02
     17  0.180150D+01  0.150787D+02
     18 -0.116695D+01 -0.854931D+00  0.196669D+02
     19 -0.554041D+01  0.608692D+00 -0.100034D+01  0.535364D+01
     20  0.560150D+00 -0.482960D+01 -0.160329D+01 -0.842772D+00  0.456521D+01
     21 -0.805909D+00 -0.141592D+01 -0.369613D+01  0.893588D+00  0.196885D+01
     22 -0.574951D+01  0.952661D+00  0.142408D+01  0.139604D+00  0.316403D-02
     23  0.964100D+00 -0.496303D+01  0.229101D+01  0.589016D-02  0.138456D+00
     24  0.142418D+01  0.226489D+01 -0.278335D+01 -0.415531D-01 -0.927381D-01
     25  0.108010D+00  0.668457D-02 -0.667405D-01 -0.328807D-01  0.200645D-02
     26  0.416583D-02  0.120011D+00 -0.610186D-01  0.178665D-02 -0.320708D-01
     27 -0.141012D-01  0.307895D-01  0.259847D-01 -0.246633D-01 -0.365105D-01
     28  0.111575D+00  0.341112D-01 -0.124083D-01 -0.311668D-02 -0.922137D-02
     29 -0.317556D-01  0.725412D-01 -0.183746D-01 -0.461240D-02  0.177785D-01
     30 -0.715658D-01 -0.459140D-03  0.210872D-01 -0.335990D-01 -0.477516D-02
     31  0.562897D-01 -0.336846D-01  0.118796D-02  0.111286D-01  0.251905D-02
     32  0.254369D-01  0.261956D-01 -0.134992D-02 -0.263156D-02 -0.700994D-02
     33  0.299216D-01 -0.546001D-01  0.535201D-01  0.324075D-02 -0.222937D-01
     34 -0.264334D+00 -0.491159D-01  0.481222D+00  0.109232D+00  0.762131D-01
     35  0.171667D-01 -0.423184D+00  0.248234D-01  0.333189D-01 -0.916966D-01
     36  0.340528D+00 -0.842956D-01  0.553008D+00  0.190313D+00  0.780076D-01
     37 -0.611439D+01 -0.321419D+01 -0.338474D-01  0.937592D-01  0.212463D+00
     38 -0.323906D+01  0.138893D+01  0.282124D+00  0.217151D+00  0.431012D-01
     39  0.997204D-02  0.164730D+00 -0.745088D+01 -0.783073D-01 -0.253420D+00
               21            22            23            24            25 
     21  0.313573D+01
     22 -0.436764D-01  0.164334D+02
     23 -0.889471D-01 -0.854220D+00  0.155761D+02
     24 -0.794024D-01 -0.109839D+01 -0.196018D+01  0.144762D+02
     25 -0.171425D-01 -0.451542D+01  0.437447D+00 -0.724112D+00  0.443446D+01
     26 -0.225508D-01  0.421578D+00 -0.422261D+01 -0.101043D+01 -0.377329D+00
     27  0.156264D+00 -0.889372D+00 -0.129014D+01 -0.277346D+01  0.770202D+00
     28 -0.207891D-01 -0.183942D+01 -0.825014D-01 -0.448588D-01 -0.219968D-01
     29 -0.950706D-02  0.114027D+00 -0.472260D+01 -0.172709D-01 -0.591250D-01
     30 -0.392191D-01  0.142630D+00 -0.210122D-01 -0.470882D+01  0.799569D-01
     31 -0.314990D-02 -0.431894D+01 -0.771856D+00 -0.115365D-02  0.962770D-01
     32 -0.795188D-02 -0.927676D+00 -0.215030D+01 -0.393017D-01  0.137338D-01
     33 -0.231833D-01 -0.632799D-01  0.131217D+00 -0.461251D+01 -0.165038D-01
     34  0.692910D-01 -0.919976D-01  0.190566D-01  0.199492D+00 -0.162969D-01
     35  0.108188D-01  0.326032D-01 -0.183839D+00  0.669009D-01  0.427300D-03
     36 -0.652710D-01  0.205953D+00  0.418905D-01  0.232733D+00  0.691331D-03
     37 -0.467083D-01 -0.275738D+00  0.175073D+00  0.305575D-01 -0.621422D-01
     38 -0.361597D+00  0.575542D-01  0.552243D+00  0.646022D+00 -0.384109D-01
     39  0.406594D+00 -0.266050D-01  0.775946D+00  0.160142D+00 -0.391508D-01
               26            27            28            29            30 
     26  0.418381D+01
     27  0.990122D+00  0.234602D+01
     28 -0.192475D-01  0.628670D-01  0.154552D+01
     29  0.627932D-01  0.288332D-01 -0.206118D+00  0.453805D+01
     30  0.103883D-01  0.455325D-01 -0.241489D+00 -0.884797D-01  0.463728D+01
     31 -0.213653D-01  0.376581D-02 -0.241998D-01  0.974287D-01 -0.821563D-02
     32 -0.620100D-01  0.101082D+00  0.725010D-01  0.353957D-01  0.947576D-02
     33  0.997035D-01  0.501202D-01  0.105076D-01 -0.387033D-02  0.753744D-01
     34 -0.541479D-02  0.228812D-01  0.281545D-01  0.288432D-02  0.240935D-01
     35 -0.164741D-01  0.786427D-03  0.879232D-02 -0.172535D-01  0.511830D-02
     36 -0.191699D-01  0.574328D-01  0.600932D-01  0.375410D-02  0.138781D-01
     37  0.810491D-02 -0.494909D-02 -0.633984D-02  0.333846D-01  0.194313D-01
     38  0.415921D-02  0.155486D+00  0.141184D+00  0.647537D-01  0.730335D-01
     39  0.416968D-01  0.794355D-01  0.853522D-01  0.863472D-01 -0.138165D-01
               31            32            33            34            35 
     31  0.428014D+01
     32  0.773517D+00  0.183722D+01
     33 -0.231943D-02 -0.291026D+00  0.451135D+01
     34 -0.215891D-01  0.248382D-01  0.231391D-01  0.617696D+01
     35  0.258939D-02  0.289805D-02  0.229877D-01 -0.100085D+01  0.575463D+01
     36  0.857857D-02  0.661473D-01  0.327616D-01  0.112015D+01  0.419589D+01
     37 -0.719515D-01 -0.679295D-01 -0.204838D-01 -0.129240D+00 -0.564079D+00
     38 -0.722534D-01  0.278605D+00  0.925576D-01 -0.555475D+00 -0.262054D+00
     39 -0.230886D-01  0.101587D+00 -0.599366D-01  0.846860D+00 -0.752318D+00
               36            37            38            39 
     36 -0.270682D+01
     37  0.836739D+00  0.505222D+01
     38 -0.730445D+00  0.459184D+01 -0.170171D+01
     39  0.372722D+00 -0.129492D+01 -0.702477D-01  0.711377D+01
 ICntrl=    100147.
 Calling FoFJK, ICntrl=    100147 FMM=F ISym2X=0 I1Cent= 0 IOpClX= 1 NMat=1 NMatS=1 NMatT=0.
 FoFJK:  IHMeth= 1 ICntrl=  100147 DoSepK=F KAlg= 0 I1Cent=           0 FoldK=F
 IRaf=         0 NMat=       1 IRICut=       1 DoRegI=T DoRafI=F ISym2E= 0 IDoP0=0 IntGTp=1.
 FoFCou: FMM=F IPFlag=           0 FMFlag=      100000 FMFlg1=         800
         NFxFlg=           0 DoJE=F BraDBF=F KetDBF=F FulRan=T
         wScrn=  0.000000 ICntrl=    100147 IOpCl=  1 I1Cent=           0 NGrid=           0
         NMat0=    1 NMatS0=      1 NMatT0=    0 NMatD0=    1 NMtDS0=    0 NMtDT0=    0
 Symmetry not used in FoFCou.
 FoFCou:  KetSym=F NOpSet=  1 NOpAb=1 NOp=  1.
 FoFCou:  CnvScl= 1.00D+00 Thresh= 1.00D-08 IAcrcy=      12.
 PrismS was handed  8052812041 working-precision words and  2614 shell-pairs
 FoFCou: LinMIO=F DoNuc=F BraDBF=F KetDBF=F HaveP=T PDBF=F HaveZ=T HaveW=F
         NIJTC =      10 NIJTAt=       0 NIJTCD=       0 NIJTT =      10
         IJTBeg=       1 IJTEnd=      10 KLTBeg=       1 KLTEnd=      10
         IPTBeg=       1 IPTEnd=      10 IPTBCv=       1 IPTECv=      10
         IZTBeg=       1 IZTEnd=      10 IZTBCv=       1 IZTECv=      10
         IWTBeg=      11 IWTEnd=      10 IWTBCv=      11 IWTECv=      10
         INTBeg=       1 INTEnd=       0 IFTBCv=       1 IFTECv=      10
 NCel replicated for PrismC:     1
 CoulSu-InSpLW:  IPartL=    0 NPrtUS=   28 NPrtUL=    1 DoSpLW=F IThBeg=    0 IThEnd=   27 NThAct=   28.
 CoulSu:  IncDef=  1024 NBBP=        3417805 NTPThr=   100 NPartT=   28 Incr=        1024 LDynOK=F GPUOK=T.
 CoulSu:  NPrtUS=  28 ThrOK=T IAlg=1 NPAlg=1 LenDen=           0 LWGrdD=           0 DoCopy=F ISkipM=0
          DoSpLW=F IThBeg=    0 IThEnd=   27.
 Enter PrismC:  IPart=  0 JobTyp=22 DoJE=F Cont=F.
 PrismC:  IPart=     0 DynPar=T LinDyn=F Incr=        1024 UseFst=F UseS4=T ISplat=2.
 Enter PrismC:  IPart= 16 JobTyp=22 DoJE=F Cont=F.
 PrismC:  IPart=    16 DynPar=T LinDyn=F Incr=        1024 UseFst=F UseS4=T ISplat=2.
 PrismC was handed   287542150 working-precision words and  2614 shell-pairs
 PrismC was handed   287542150 working-precision words and  2614 shell-pairs
 Enter PrismC:  IPart= 24 JobTyp=22 DoJE=F Cont=F.
 PrismC:  IPart=    24 DynPar=T LinDyn=F Incr=        1024 UseFst=F UseS4=T ISplat=2.
 PrismC was handed   287542150 working-precision words and  2614 shell-pairs
 Enter PrismC:  IPart= 25 JobTyp=22 DoJE=F Cont=F.
 PrismC:  IPart=    25 DynPar=T LinDyn=F Incr=        1024 UseFst=F UseS4=T ISplat=2.
 PrismC was handed   287542150 working-precision words and  2614 shell-pairs
 Enter PrismC:  IPart= 13 JobTyp=22 DoJE=F Cont=F.
 PrismC:  IPart=    13 DynPar=T LinDyn=F Incr=        1024 UseFst=F UseS4=T ISplat=2.
 PrismC was handed   287542150 working-precision words and  2614 shell-pairs
 Enter PrismC:  IPart=  3 JobTyp=22 DoJE=F Cont=F.
 PrismC:  IPart=     3 DynPar=T LinDyn=F Incr=        1024 UseFst=F UseS4=T ISplat=2.
 PrismC was handed   287542150 working-precision words and  2614 shell-pairs
 Enter PrismC:  IPart=  2 JobTyp=22 DoJE=F Cont=F.
 PrismC:  IPart=     2 DynPar=T LinDyn=F Incr=        1024 UseFst=F UseS4=T ISplat=2.
 PrismC was handed   287542150 working-precision words and  2614 shell-pairs
 Enter PrismC:  IPart= 14 JobTyp=22 DoJE=F Cont=F.
 PrismC:  IPart=    14 DynPar=T LinDyn=F Incr=        1024 UseFst=F UseS4=T ISplat=2.
 PrismC was handed   287542150 working-precision words and  2614 shell-pairs
 Enter PrismC:  IPart= 20 JobTyp=22 DoJE=F Cont=F.
 Enter PrismC:  IPart= 27 JobTyp=22 DoJE=F Cont=F.
 PrismC:  IPart=    20 DynPar=T LinDyn=F Incr=        1024 UseFst=F UseS4=T ISplat=2.
 PrismC was handed   287542150 working-precision words and  2614 shell-pairs
 PrismC:  IPart=    27 DynPar=T LinDyn=F Incr=        1024 UseFst=F UseS4=T ISplat=2.
 PrismC was handed   287542150 working-precision words and  2614 shell-pairs
 Enter PrismC:  IPart=  4 JobTyp=22 DoJE=F Cont=F.
 PrismC:  IPart=     4 DynPar=T LinDyn=F Incr=        1024 UseFst=F UseS4=T ISplat=2.
 PrismC was handed   287542150 working-precision words and  2614 shell-pairs
 Enter PrismC:  IPart= 18 JobTyp=22 DoJE=F Cont=F.
 PrismC:  IPart=    18 DynPar=T LinDyn=F Incr=        1024 UseFst=F UseS4=T ISplat=2.
 PrismC was handed   287542150 working-precision words and  2614 shell-pairs
 Enter PrismC:  IPart=  7 JobTyp=22 DoJE=F Cont=F.
 PrismC:  IPart=     7 DynPar=T LinDyn=F Incr=        1024 UseFst=F UseS4=T ISplat=2.
 PrismC was handed   287542150 working-precision words and  2614 shell-pairs
 Enter PrismC:  IPart= 11 JobTyp=22 DoJE=F Cont=F.
 PrismC:  IPart=    11 DynPar=T LinDyn=F Incr=        1024 UseFst=F UseS4=T ISplat=2.
 PrismC was handed   287542150 working-precision words and  2614 shell-pairs
 Enter PrismC:  IPart= 15 JobTyp=22 DoJE=F Cont=F.
 PrismC:  IPart=    15 DynPar=T LinDyn=F Incr=        1024 UseFst=F UseS4=T ISplat=2.
 PrismC was handed   287542150 working-precision words and  2614 shell-pairs
 Enter PrismC:  IPart= 26 JobTyp=22 DoJE=F Cont=F.
 Enter PrismC:  IPart= 19 JobTyp=22 DoJE=F Cont=F.
 PrismC:  IPart=    26 DynPar=T LinDyn=F Incr=        1024 UseFst=F UseS4=T ISplat=2.
 PrismC was handed   287542150 working-precision words and  2614 shell-pairs
 PrismC:  IPart=    19 DynPar=T LinDyn=F Incr=        1024 UseFst=F UseS4=T ISplat=2.
 PrismC was handed   287542150 working-precision words and  2614 shell-pairs
 Enter PrismC:  IPart=  8 JobTyp=22 DoJE=F Cont=F.
 Enter PrismC:  IPart= 10 JobTyp=22 DoJE=F Cont=F.
 Enter PrismC:  IPart= 12 JobTyp=22 DoJE=F Cont=F.
 Enter PrismC:  IPart=  5 JobTyp=22 DoJE=F Cont=F.
 PrismC:  IPart=     5 DynPar=T LinDyn=F Incr=        1024 UseFst=F UseS4=T ISplat=2.
 PrismC was handed   287542150 working-precision words and  2614 shell-pairs
 PrismC:  IPart=     8 DynPar=T LinDyn=F Incr=        1024 UseFst=F UseS4=T ISplat=2.
 PrismC was handed   287542150 working-precision words and  2614 shell-pairs
 PrismC:  IPart=    10 DynPar=T LinDyn=F Incr=        1024 UseFst=F UseS4=T ISplat=2.
 PrismC:  IPart=    12 DynPar=T LinDyn=F Incr=        1024 UseFst=F UseS4=T ISplat=2.
 PrismC was handed   287542150 working-precision words and  2614 shell-pairs
 PrismC was handed   287542150 working-precision words and  2614 shell-pairs
 Enter PrismC:  IPart= 23 JobTyp=22 DoJE=F Cont=F.
 Enter PrismC:  IPart= 21 JobTyp=22 DoJE=F Cont=F.
 PrismC:  IPart=    23 DynPar=T LinDyn=F Incr=        1024 UseFst=F UseS4=T ISplat=2.
 PrismC was handed   287542150 working-precision words and  2614 shell-pairs
 PrismC:  IPart=    21 DynPar=T LinDyn=F Incr=        1024 UseFst=F UseS4=T ISplat=2.
 PrismC was handed   287542150 working-precision words and  2614 shell-pairs
 Enter PrismC:  IPart=  6 JobTyp=22 DoJE=F Cont=F.
 Enter PrismC:  IPart=  9 JobTyp=22 DoJE=F Cont=F.
 PrismC:  IPart=     6 DynPar=T LinDyn=F Incr=        1024 UseFst=F UseS4=T ISplat=2.
 PrismC was handed   287542150 working-precision words and  2614 shell-pairs
 PrismC:  IPart=     9 DynPar=T LinDyn=F Incr=        1024 UseFst=F UseS4=T ISplat=2.
 PrismC was handed   287542150 working-precision words and  2614 shell-pairs
 Enter PrismC:  IPart= 17 JobTyp=22 DoJE=F Cont=F.
 PrismC:  IPart=    17 DynPar=T LinDyn=F Incr=        1024 UseFst=F UseS4=T ISplat=2.
 PrismC was handed   287542150 working-precision words and  2614 shell-pairs
 Enter PrismC:  IPart=  1 JobTyp=22 DoJE=F Cont=F.
 PrismC:  IPart=     1 DynPar=T LinDyn=F Incr=        1024 UseFst=F UseS4=T ISplat=2.
 PrismC was handed   287542150 working-precision words and  2614 shell-pairs
 Enter PrismC:  IPart= 22 JobTyp=22 DoJE=F Cont=F.
 PrismC:  IPart=    22 DynPar=T LinDyn=F Incr=        1024 UseFst=F UseS4=T ISplat=2.
 PrismC was handed   287542150 working-precision words and  2614 shell-pairs
 IPart= 21 NShTot=       75984 NShNF=       75984 NShFF=           0 MinMC=       7
           NShCPU=       75984 NBCPU=        2706 AvBCPU=        28.1
           NShGPU=           0 NBGPU=           0 AvBGPU=         0.0
 IPart=  8 NShTot=       72067 NShNF=       72067 NShFF=           0 MinMC=       7
           NShCPU=       72067 NBCPU=        2371 AvBCPU=        30.4
           NShGPU=           0 NBGPU=           0 AvBGPU=         0.0
 IPart= 10 NShTot=       75825 NShNF=       75825 NShFF=           0 MinMC=       7
           NShCPU=       75825 NBCPU=        2533 AvBCPU=        29.9
           NShGPU=           0 NBGPU=           0 AvBGPU=         0.0
 IPart=  1 NShTot=       55814 NShNF=       55814 NShFF=           0 MinMC=       7
           NShCPU=       55814 NBCPU=        1762 AvBCPU=        31.7
           NShGPU=           0 NBGPU=           0 AvBGPU=         0.0
 IPart=  4 NShTot=       51452 NShNF=       51452 NShFF=           0 MinMC=       7
           NShCPU=       51452 NBCPU=        1982 AvBCPU=        26.0
           NShGPU=           0 NBGPU=           0 AvBGPU=         0.0
 IPart= 12 NShTot=       71876 NShNF=       71876 NShFF=           0 MinMC=       7
           NShCPU=       71876 NBCPU=        2357 AvBCPU=        30.5
           NShGPU=           0 NBGPU=           0 AvBGPU=         0.0
 IPart= 27 NShTot=       73092 NShNF=       73092 NShFF=           0 MinMC=       7
           NShCPU=       73092 NBCPU=        2475 AvBCPU=        29.5
           NShGPU=           0 NBGPU=           0 AvBGPU=         0.0
 IPart= 15 NShTot=       74850 NShNF=       74850 NShFF=           0 MinMC=       7
           NShCPU=       74850 NBCPU=        2544 AvBCPU=        29.4
           NShGPU=           0 NBGPU=           0 AvBGPU=         0.0
 IPart= 23 NShTot=       70939 NShNF=       70939 NShFF=           0 MinMC=       7
           NShCPU=       70939 NBCPU=        2392 AvBCPU=        29.7
           NShGPU=           0 NBGPU=           0 AvBGPU=         0.0
 IPart=  3 NShTot=       70176 NShNF=       70176 NShFF=           0 MinMC=       7
           NShCPU=       70176 NBCPU=        2594 AvBCPU=        27.1
           NShGPU=           0 NBGPU=           0 AvBGPU=         0.0
 IPart=  6 NShTot=       67750 NShNF=       67750 NShFF=           0 MinMC=       7
           NShCPU=       67750 NBCPU=        2241 AvBCPU=        30.2
           NShGPU=           0 NBGPU=           0 AvBGPU=         0.0
 IPart= 16 NShTot=       72329 NShNF=       72329 NShFF=           0 MinMC=       7
           NShCPU=       72329 NBCPU=        2546 AvBCPU=        28.4
           NShGPU=           0 NBGPU=           0 AvBGPU=         0.0
 IPart= 13 NShTot=       74288 NShNF=       74288 NShFF=           0 MinMC=       7
           NShCPU=       74288 NBCPU=        2441 AvBCPU=        30.4
           NShGPU=           0 NBGPU=           0 AvBGPU=         0.0
 IPart=  2 NShTot=       75997 NShNF=       75997 NShFF=           0 MinMC=       7
           NShCPU=       75997 NBCPU=        2494 AvBCPU=        30.5
           NShGPU=           0 NBGPU=           0 AvBGPU=         0.0
 IPart= 22 NShTot=       74899 NShNF=       74899 NShFF=           0 MinMC=       7
           NShCPU=       74899 NBCPU=        2524 AvBCPU=        29.7
           NShGPU=           0 NBGPU=           0 AvBGPU=         0.0
 IPart=  9 NShTot=       77876 NShNF=       77876 NShFF=           0 MinMC=       7
           NShCPU=       77876 NBCPU=        2486 AvBCPU=        31.3
           NShGPU=           0 NBGPU=           0 AvBGPU=         0.0
 IPart= 14 NShTot=       72089 NShNF=       72089 NShFF=           0 MinMC=       7
           NShCPU=       72089 NBCPU=        2448 AvBCPU=        29.4
           NShGPU=           0 NBGPU=           0 AvBGPU=         0.0
 IPart=  7 NShTot=       69867 NShNF=       69867 NShFF=           0 MinMC=       7
           NShCPU=       69867 NBCPU=        2796 AvBCPU=        25.0
           NShGPU=           0 NBGPU=           0 AvBGPU=         0.0
 IPart=  5 NShTot=       72196 NShNF=       72196 NShFF=           0 MinMC=       7
           NShCPU=       72196 NBCPU=        2531 AvBCPU=        28.5
           NShGPU=           0 NBGPU=           0 AvBGPU=         0.0
 IPart= 25 NShTot=       71479 NShNF=       71479 NShFF=           0 MinMC=       7
           NShCPU=       71479 NBCPU=        2121 AvBCPU=        33.7
           NShGPU=           0 NBGPU=           0 AvBGPU=         0.0
 IPart= 24 NShTot=       66515 NShNF=       66515 NShFF=           0 MinMC=       7
           NShCPU=       66515 NBCPU=        1887 AvBCPU=        35.2
           NShGPU=           0 NBGPU=           0 AvBGPU=         0.0
 IPart= 17 NShTot=       77643 NShNF=       77643 NShFF=           0 MinMC=       7
           NShCPU=       77643 NBCPU=        2432 AvBCPU=        31.9
           NShGPU=           0 NBGPU=           0 AvBGPU=         0.0
 IPart= 19 NShTot=       75887 NShNF=       75887 NShFF=           0 MinMC=       7
           NShCPU=       75887 NBCPU=        2584 AvBCPU=        29.4
           NShGPU=           0 NBGPU=           0 AvBGPU=         0.0
 IPart=  0 NShTot=       75627 NShNF=       75627 NShFF=           0 MinMC=       7
           NShCPU=       75627 NBCPU=        2553 AvBCPU=        29.6
           NShGPU=           0 NBGPU=           0 AvBGPU=         0.0
 IPart= 20 NShTot=       73703 NShNF=       73703 NShFF=           0 MinMC=       7
           NShCPU=       73703 NBCPU=        2520 AvBCPU=        29.2
           NShGPU=           0 NBGPU=           0 AvBGPU=         0.0
 IPart= 11 NShTot=       46124 NShNF=       46124 NShFF=           0 MinMC=       7
           NShCPU=       46124 NBCPU=        1808 AvBCPU=        25.5
           NShGPU=           0 NBGPU=           0 AvBGPU=         0.0
 IPart= 18 NShTot=       73683 NShNF=       73683 NShFF=           0 MinMC=       7
           NShCPU=       73683 NBCPU=        2576 AvBCPU=        28.6
           NShGPU=           0 NBGPU=           0 AvBGPU=         0.0
 IPart= 26 NShTot=       68916 NShNF=       68916 NShFF=           0 MinMC=       7
           NShCPU=       68916 NBCPU=        2256 AvBCPU=        30.5
           NShGPU=           0 NBGPU=           0 AvBGPU=         0.0
 CoulSu:  NxtVal=        3630081 LenVP=      287542151 MinMC=       7.
 ReadGW:  IGet=0 IStart=           1 Next=           1 LGW=           0.
 Remaining memory in FofDFT     7679.93 Mw
 CkSvGd:  ISavGI=        -1 IRadAn=       5 IRASav=       5 ISavGd=        -1.
 CalDSu-InSpLW:  IPartL=    0 NPrtUS=   28 NPrtUL=    1 DoSpLW=F IThBeg=    0 IThEnd=   27 NThAct=   28.
 CalDSu:  NPrtUS=  28 ThrOK=T IAlg=1 NPAlg=2 DoDPD=T LenP=       17020 LenD1P=             0 GPUOK=F
          ISkipM=0 DoSpLW=F IThBeg=    0 IThEnd=   27.
 IPart=  0 IRanGd=          0 ScrnBf=T ScrnGd=T RCrit=4.00D+00 DoMicB=T.
 IPart= 19         9800 of        10620 points in       9 batches and       26 microbatches, Max-NSigAt=      13 Max-NSgAt2=      13
 IPart= 15         9454 of        10472 points in       9 batches and       40 microbatches, Max-NSigAt=      13 Max-NSgAt2=      13
 IPart= 27        10301 of        11686 points in      10 batches and       42 microbatches, Max-NSigAt=      13 Max-NSgAt2=      13
 IPart= 18         9966 of        11652 points in      12 batches and       44 microbatches, Max-NSigAt=      13 Max-NSgAt2=      13
 IPart= 16         9391 of        10478 points in       9 batches and       44 microbatches, Max-NSigAt=      13 Max-NSgAt2=      13
 IPart= 23         9103 of         9818 points in       9 batches and       28 microbatches, Max-NSigAt=      13 Max-NSgAt2=      13
 IPart=  0         8956 of         9502 points in       8 batches and       45 microbatches, Max-NSigAt=      13 Max-NSgAt2=      13
 IPart=  2        10658 of        11462 points in       9 batches and       44 microbatches, Max-NSigAt=      13 Max-NSgAt2=      13
 IPart= 25         7609 of         8190 points in       7 batches and       48 microbatches, Max-NSigAt=      13 Max-NSgAt2=      13
 IPart=  7         8525 of         9552 points in       9 batches and       60 microbatches, Max-NSigAt=      13 Max-NSgAt2=      13
 IPart= 20         8910 of         9924 points in       9 batches and       47 microbatches, Max-NSigAt=      13 Max-NSgAt2=      13
 IPart= 17         8819 of         9672 points in       9 batches and       52 microbatches, Max-NSigAt=      13 Max-NSgAt2=      13
 IPart=  5         8596 of         9798 points in      11 batches and       69 microbatches, Max-NSigAt=      13 Max-NSgAt2=      13
 IPart= 14         9980 of        10410 points in       8 batches and       40 microbatches, Max-NSigAt=      13 Max-NSgAt2=      13
[...]
               7          8          9         10         11         12
     1  C    0.057997  -0.293126  -0.004411  -0.012093  -0.006732   0.235976
     2  H   -0.000910  -0.001878   0.000152  -0.000901  -0.000544  -0.019489
     3  C   -0.153949   0.861979  -0.006326   0.002961   0.020022  -0.454353
     4  H   -0.013911  -0.008715  -0.000246   0.000424  -0.011492   0.018198
     5  H    0.008187  -0.026383   0.000489  -0.001856   0.001521   0.006497
     6  C    0.505632  -0.737487  -0.026305   0.007068  -0.063100   0.167671
     7  H    0.621017  -0.108241   0.002938  -0.006650  -0.004608   0.058674
     8  C   -0.108241   5.487900   0.419287   0.411176   0.432313  -0.083616
     9  H    0.002938   0.419287   0.597637  -0.027423  -0.037191   0.001270
    10  H   -0.006650   0.411176  -0.027423   0.585663  -0.027203  -0.000253
    11  H   -0.004608   0.432313  -0.037191  -0.027203   0.624711  -0.002952
    12  Cl   0.058674  -0.083616   0.001270  -0.000253  -0.002952  17.398900
    13  Cl   0.017176   0.062267   0.013165  -0.019715   0.008249   0.056307
              13
     1  C    0.246949
     2  H    0.018469
     3  C   -0.095563
     4  H    0.001582
     5  H    0.009171
     6  C   -0.682208
     7  H    0.017176
     8  C    0.062267
     9  H    0.013165
    10  H   -0.019715
    11  H    0.008249
    12  Cl   0.056307
    13  Cl  18.023940
          Atomic-Atomic Spin Densities.
               1          2          3          4          5          6
     1  C    1.313374   0.008349  -0.065183  -0.025867  -0.000611  -0.020996
     2  H    0.008349  -0.079540  -0.004484   0.004423   0.001280  -0.008836
     3  C   -0.065183  -0.004484  -0.095947   0.004476   0.003844  -0.014219
     4  H   -0.025867   0.004423   0.004476   0.061237   0.001448  -0.025700
     5  H   -0.000611   0.001280   0.003844   0.001448   0.011012  -0.003443
     6  C   -0.020996  -0.008836  -0.014219  -0.025700  -0.003443   0.148836
     7  H    0.000937  -0.001763   0.007672  -0.008290  -0.000195  -0.002009
     8  C   -0.005333  -0.000269  -0.009556   0.008876   0.000535   0.006319
     9  H    0.000220   0.000008   0.001268  -0.000208  -0.000016  -0.001163
    10  H   -0.000733  -0.000015  -0.000827  -0.000099   0.000064  -0.000304
    11  H    0.000027  -0.000053   0.001235  -0.001002  -0.000304  -0.001196
    12  Cl  -0.092680   0.001278   0.030753   0.003317  -0.000645  -0.011074
    13  Cl   0.004882   0.002297   0.015319   0.001767  -0.000244  -0.018610
               7          8          9         10         11         12
     1  C    0.000937  -0.005333   0.000220  -0.000733   0.000027  -0.092680
     2  H   -0.001763  -0.000269   0.000008  -0.000015  -0.000053   0.001278
     3  C    0.007672  -0.009556   0.001268  -0.000827   0.001235   0.030753
     4  H   -0.008290   0.008876  -0.000208  -0.000099  -0.001002   0.003317
     5  H   -0.000195   0.000535  -0.000016   0.000064  -0.000304  -0.000645
     6  C   -0.002009   0.006319  -0.001163  -0.000304  -0.001196  -0.011074
     7  H    0.000933  -0.005756   0.000170   0.000429   0.000785   0.002603
     8  C   -0.005756   0.004901  -0.000477   0.001053  -0.001065   0.001938
     9  H    0.000170  -0.000477  -0.000124   0.000168   0.000074  -0.000014
    10  H    0.000429   0.001053   0.000168   0.001923  -0.000051  -0.000076
    11  H    0.000785  -0.001065   0.000074  -0.000051   0.000313   0.000238
    12  Cl   0.002603   0.001938  -0.000014  -0.000076   0.000238   0.069339
    13  Cl  -0.000138   0.002050   0.000190  -0.000631   0.000287  -0.002647
              13
     1  C    0.004882
     2  H    0.002297
     3  C    0.015319
     4  H    0.001767
     5  H   -0.000244
     6  C   -0.018610
     7  H   -0.000138
     8  C    0.002050
     9  H    0.000190
    10  H   -0.000631
    11  H    0.000287
    12  Cl  -0.002647
    13  Cl  -0.003858
 Mulliken charges and spin densities:
               1          2
     1  C    0.053673   1.116387
     2  H    0.090602  -0.077324
     3  C   -0.035242  -0.125648
     4  H    0.057888   0.024378
     5  H    0.068380   0.012725
     6  C    0.983374   0.047605
     7  H    0.016648  -0.004620
     8  C   -0.415476   0.003216
     9  H    0.066963   0.000097
    10  H    0.088801   0.000900
    11  H    0.067007  -0.000711
    12  Cl  -0.382829   0.002331
    13  Cl  -0.659790   0.000663
 Sum of Mulliken charges =  -0.00000   1.00000
 Mulliken charges and spin densities with hydrogens summed into heavy atoms:
               1          2
     1  C    0.144275   1.039063
     3  C    0.091026  -0.088544
     6  C    1.000023   0.042985
     8  C   -0.192705   0.003502
    12  Cl  -0.382829   0.002331
    13  Cl  -0.659790   0.000663
 Electronic spatial extent (au):  <R**2>=           3157.1789
 Charge=             -0.0000 electrons
 Dipole moment (field-independent basis, Debye):
    X=             -0.6477    Y=              1.4790    Z=              1.5821  Tot=              2.2605
 Quadrupole moment (field-independent basis, Debye-Ang):
   XX=            -49.8125   YY=            -49.6296   ZZ=            -51.3985
   XY=             -0.5189   XZ=             -7.1928   YZ=              4.7923
 Traceless Quadrupole moment (field-independent basis, Debye-Ang):
   XX=              0.4677   YY=              0.6506   ZZ=             -1.1183
   XY=             -0.5189   XZ=             -7.1928   YZ=              4.7923
 Octapole moment (field-independent basis, Debye-Ang**2):
  XXX=            438.1087  YYY=            -91.5093  ZZZ=            -94.6908  XYY=            141.7591
  XXY=            -39.5833  XXZ=             -3.2977  XZZ=            144.3725  YZZ=            -24.2401
  YYZ=            -29.2029  XYZ=            -11.9791
 Hexadecapole moment (field-independent basis, Debye-Ang**3):
 XXXX=          -3032.7447 YYYY=           -415.5977 ZZZZ=           -817.9296 XXXY=            379.9854
 XXXZ=            -50.3213 YYYX=            312.0685 YYYZ=            -35.1539 ZZZX=             53.5160
 ZZZY=            -35.6415 XXYY=           -557.6588 XXZZ=           -633.8506 YYZZ=           -204.4166
 XXYZ=             23.1787 YYXZ=             14.5468 ZZXY=             93.6191
 N-N= 3.428840497624D+02 E-N=-3.236209113967D+03  KE= 1.074448027251D+03

 Test job not archived.
 1\1\GINC-BNODE0303\SP\UMP2-FC\CBSB3\C4H7Cl2(2)\JASM3285\06-Mar-2018\0\
 \#N Geom=AllCheck Guess=TCheck SCRF=Check Test MP2/CBSB3 CBSExtrap=(NM
 in=10,MinPop)\\Title Card Required\\0,2\C,0,-4.1642074083,0.2563040597
 ,-0.0618933641\H,0,-4.3131437317,-0.8067147805,-0.1774588316\C,0,-3.66
 80087109,0.8939559479,1.1843258448\H,0,-4.0409927503,1.9244088786,1.24
 11247218\H,0,-4.0757435981,0.3500809289,2.0428008617\C,0,-2.1362570734
 ,0.9678141609,1.3338211054\H,0,-1.6967841869,1.3932335052,0.431969437\
 C,0,-1.6966846057,1.7377026036,2.5681437663\H,0,-2.106271735,1.2895206
 879,3.4763434886\H,0,-0.6093352399,1.7531934974,2.6516491287\H,0,-2.05
 17400068,2.7710378992,2.5001936325\Cl,0,-4.0678312604,1.1273027996,-1.
 5522171751\Cl,0,-1.4475635427,-0.7341389585,1.4024445439\\Version=ES64
 L-G16RevA.03\HF=-1074.5885749\MP2=-1075.6176546\E2(CBS)=-1.1467867\CBS
 -Int=-1.1057545\OIii=9.3019454\PUHF=-1074.5926924\PMP2-0=-1075.6203582
 \S2=0.767816\S2-1=0.755478\S2A=0.75025\RMSD=4.077e-09\PG=C01 [X(C4H7Cl
 2)]\\@


 Not by the face shall a man be known, but by the mask.
                               -- Karen Blixen
 Diagonal vibrational polarizability:
        0.0000000       0.0000000       0.0000000

 Complete Basis Set (CBS) Extrapolation:
 M. R. Nyden and G. A. Petersson, JCP 75, 1843 (1981)
 G. A. Petersson and M. A. Al-Laham, JCP 94, 6081 (1991)
 G. A. Petersson, T. Tensfeldt, and J. A. Montgomery, JCP 94, 6091 (1991)
 J. A. Montgomery, J. W. Ochterski, and G. A. Petersson, JCP 101, 5900 (1994)

 Temperature=               298.150000 Pressure=                       1.000000
 E(ZPE)=                      0.099067 E(Thermal)=                     0.106842
 E(SCF)=                  -1074.588575 DE(MP2)=                       -1.029080
 DE(CBS)=                    -0.117707 DE(MP34)=                      -0.078637
 DE(CCSD)=                   -0.027610 DE(Int)=                        0.041032
 DE(Empirical)=              -0.054028
 CBS-QB3 (0 K)=           -1075.755538 CBS-QB3 Energy=             -1075.747763
 CBS-QB3 Enthalpy=        -1075.746818 CBS-QB3 Free Energy=        -1075.789646

 Test job not archived.
 1\1\GINC-BNODE0303\Mixed\CBS-QB3\CBS-QB3\C4H7Cl2(2)\JASM3285\06-Mar-20
 18\0\\# opt=(calcfc,verytight) freq cbs-qb3 nosymm geom=connectivity c
 csd=maxcyc=1000 optcyc=200 iop(7/33=1)\\Title Card Required\\0,2\C,0,-
 4.1642074083,0.2563040597,-0.0618933641\H,0,-4.3131437317,-0.806714780
 5,-0.1774588316\C,0,-3.6680087109,0.8939559479,1.1843258448\H,0,-4.040
 9927503,1.9244088786,1.2411247218\H,0,-4.0757435981,0.3500809289,2.042
 8008617\C,0,-2.1362570734,0.9678141609,1.3338211054\H,0,-1.6967841869,
 1.3932335052,0.431969437\C,0,-1.6966846057,1.7377026036,2.5681437663\H
 ,0,-2.106271735,1.2895206879,3.4763434886\H,0,-0.6093352399,1.75319349
 74,2.6516491287\H,0,-2.0517400068,2.7710378992,2.5001936325\Cl,0,-4.06
 78312604,1.1273027996,-1.5522171751\Cl,0,-1.4475635427,-0.7341389585,1
 .4024445439\\Version=ES64L-G16RevA.03\HF/CbsB3=-1074.5885749\E2(CBS)/C
 bsB3=-1.1467867\CBS-Int/CbsB3=0.0410322\OIii/CbsB3=9.3019454\MP2/CbsB4
 =-1075.3706298\MP4(SDQ)/CbsB4=-1075.4492667\MP4(SDQ)/6-31+G(d')=-1075.
 3239504\QCISD(T)/6-31+G(d')=-1075.3515602\CBSQB3=-1075.7555377\FreqCoo
 rd=-7.8692115276,0.4843444775,-0.116961507,-8.1506603887,-1.5244699957
 ,-0.33534859,-6.9315318861,1.6893319089,2.2380514889,-7.6363695695,3.6
 366057323,2.3453858106,-7.7020391543,0.6615570771,3.8603341557,-4.0369
 408003,1.8289037035,2.5205565883,-3.2064574058,2.6328297525,0.81630393
 01,-3.2062692245,3.2837820068,4.8530883668,-3.980276723,2.4368409321,6
 .5693371085,-1.1514767214,3.3130555534,5.0108906316,-3.8772266916,5.23
 65027103,4.7246812239,-7.6870870031,2.1302935507,-2.9332653467,-2.7354
 986436,-1.3873215689,2.6502360928\PG=C01 [X(C4H7Cl2)]\NImag=0\\0.09446
 163,0.10564048,0.55097034,0.07750220,0.04893980,0.38946892,-0.01429752
 ,-0.04244083,-0.01196295,0.01235015,-0.05469687,-0.34560756,-0.0380134
 1,0.05186461,0.35430884,-0.01197781,-0.03934885,-0.04787372,0.01157727
 ,0.03420295,0.05861244,-0.05943677,-0.03254533,-0.04611675,0.00161697,
 0.00287312,-0.00138812,0.39563450,-0.02873816,-0.11188786,-0.05795451,
 -0.00980555,-0.00281677,-0.02109449,0.00610279,0.56993660,-0.04362216,
 -0.05840429,-0.17220063,0.00007161,0.00246132,0.00288388,-0.02953032,-
 0.03272408,0.52749549,0.00279300,-0.01276413,-0.00126494,-0.00032078,-
 0.00065735,-0.00224540,-0.07230251,0.07959284,0.00566086,0.08363808,-0
 .00036096,-0.01673829,-0.00339160,0.00093827,0.00015337,-0.00237976,0.
 08062472,-0.26541686,-0.00732866,-0.08616754,0.29258508,0.00410253,-0.
 02867482,-0.00342528,-0.00049371,-0.00127271,-0.00334169,0.00637768,-0
 .00909907,-0.04808552,-0.00016328,0.01434182,0.05054244,0.00259161,0.0
 0569881,-0.00780528,0.00013694,-0.00014989,0.00032723,-0.07660254,-0.0
 4642645,0.07303691,0.00395247,0.00459225,-0.00920158,0.09072626,0.0041
 5243,0.00692136,-0.00893238,0.00064582,0.00018602,0.00050416,-0.048378
 60,-0.11437726,0.09945754,-0.01143017,-0.01313692,0.02228890,0.0541301
 0,0.11855514,0.00612301,0.01416570,-0.02203751,-0.00012129,-0.00053324
 ,0.00112819,0.07490374,0.09931840,-0.20418367,-0.00187992,-0.00106592,
 0.00232809,-0.07792932,-0.10949031,0.22398239,-0.01345672,-0.00712848,
 -0.02183712,0.00014536,0.00035072,0.00179864,-0.14863333,-0.00669725,0
 .01088739,-0.01397297,0.00166131,0.00110362,-0.01872323,0.00146009,0.0
 0055596,0.41670139,-0.01452049,-0.00350154,-0.00196024,-0.00025687,-0.
 00057735,-0.00183964,-0.01530043,-0.06278522,0.00024084,0.02933597,-0.
 00250697,0.00177354,-0.01806106,-0.00160892,-0.00031838,0.07158105,0.3
 3761733,-0.02845208,-0.00583742,-0.00806056,0.00001053,-0.00010694,-0.
 00081937,-0.00394206,0.00359033,-0.07556899,-0.00044727,0.00050327,0.0
 0026736,0.02727382,0.00168548,0.00148087,-0.05071793,-0.03594306,0.545
 30845,0.00141511,-0.00017593,0.00270110,-0.00005315,0.00001388,-0.0002
 0350,-0.01616627,-0.01430362,0.02456593,0.00099526,0.00042427,-0.00015
 809,-0.00602702,-0.00001469,-0.00092469,-0.09231817,-0.04658495,0.0914
 9946,0.10411633,0.00030146,-0.00041703,0.00073571,-0.00011333,0.000018
 24,0.00001168,-0.00171552,0.00163093,0.00074719,-0.00063427,0.00030222
 ,-0.00012194,-0.00003977,0.00094472,-0.00001416,-0.04753005,-0.0810174
 7,0.08825047,0.04449526,0.09598001,-0.00025375,-0.00034819,0.00078614,
 -0.00002001,0.00003943,0.00000389,-0.00180109,-0.00193369,0.00353925,0
 .00071150,-0.00001824,0.00002896,-0.00148705,-0.00066056,0.00062034,0.
 09236716,0.08678578,-0.23636424,-0.09650149,-0.08849176,0.25124652,-0.
 00552915,-0.00163098,0.00118304,-0.00006455,-0.00016571,-0.00078135,-0
 .01447257,-0.01680639,-0.02988171,0.00136457,-0.00104438,-0.00041344,0
 .00134092,0.00010048,-0.00021021,-0.08767908,-0.02102335,-0.02649368,0
 .00491811,0.00650303,0.01010530,0.57423102,0.00043199,0.00035784,-0.00
 006067,0.00017620,0.00002375,0.00015991,-0.00483281,0.00071023,-0.0029
 0254,0.00068918,-0.00005532,0.00014727,0.00058990,-0.00035233,-0.00043
 561,-0.02128886,-0.09223511,-0.04449650,0.00358952,0.00850873,0.009053
 14,-0.01357946,0.53090736,0.00036694,0.00020615,0.00013767,-0.00021410
 ,0.00000247,0.00005352,-0.00507344,-0.00174190,-0.00324897,0.00018439,
 -0.00050326,-0.00002676,0.00120542,0.00037904,0.00097082,-0.02599827,-
 0.04496196,-0.16404931,-0.00959430,-0.01606744,-0.02174474,-0.01958576
 ,-0.04797046,0.50741809,0.00001088,0.00010568,-0.00006390,0.00001627,0
 .00001230,0.00004790,0.00100138,0.00074543,-0.00060351,-0.00004206,0.0
 0010152,-0.00006096,0.00012430,-0.00030862,0.00004644,0.00348714,0.005
 24002,-0.00850319,0.00008996,-0.00127371,-0.00177472,-0.08645523,-0.04
 257458,0.08283295,0.08895665,0.00016137,0.00004567,-0.00000625,-0.0000
 1475,-0.00000713,-0.00000037,0.00088659,0.00025662,0.00017727,-0.00003
 104,-0.00004854,0.00017650,-0.00011564,0.00010411,0.00027956,0.0076464
 1,0.00616417,-0.01671619,-0.00125970,-0.00119459,-0.00330690,-0.042665
 12,-0.09346400,0.09303094,0.04754431,0.09830051,-0.00010002,-0.0001408
 9,0.00000775,0.00004176,-0.00000505,0.00001886,0.00147899,0.00062024,0
 .00109350,-0.00007542,0.00000189,-0.00006608,-0.00103740,-0.00037577,0
 .00023601,0.01034930,0.01204794,-0.02585235,-0.00223220,-0.00348340,-0
 .00287029,0.08191088,0.08989188,-0.22463028,-0.08912007,-0.09758854,0.
 24786843,-0.00027330,-0.00019944,0.00045186,-0.00010912,-0.00000636,-0
 .00017931,0.00102957,-0.00081455,-0.00196612,0.00032569,0.00000255,0.0
 0019927,0.00025482,0.00010970,0.00008433,-0.00888359,0.00085679,-0.000
 26810,0.00059866,0.00000107,-0.00038141,-0.31446275,-0.00334748,-0.017
 93628,-0.01074192,0.00039902,-0.00085552,0.33945876,-0.00085924,0.0003
 2002,-0.00001524,0.00002647,-0.00003101,0.00000590,-0.00015959,-0.0015
 5523,-0.00294860,-0.00016995,0.00036967,0.00003087,0.00038760,0.000081
 36,0.00002833,-0.01847541,-0.00282018,-0.00167670,0.00072860,0.0002259
 6,0.00041293,-0.00059084,-0.04585321,0.00101959,-0.01387403,-0.0007347
 9,-0.00154493,0.00291499,0.04749011,-0.00137825,-0.00054417,0.00058434
 ,0.00000345,-0.00003705,-0.00020537,-0.00047153,-0.00278880,-0.0042362
 8,0.00041816,0.00004484,-0.00009914,-0.00017897,-0.00025628,0.00010696
 ,-0.02930069,-0.00004985,-0.00246261,0.00018525,0.00070222,0.00090160,
 -0.01533319,0.00007483,-0.04839355,0.02702743,-0.00078380,0.00278139,0
 .02071075,0.00251253,0.05199089,0.00013966,0.00020259,-0.00002090,0.00
 001429,0.00000720,0.00006742,-0.00002307,-0.00031195,0.00009340,-0.000
 40343,-0.00027102,-0.00048262,0.00003209,-0.00013753,-0.00005118,0.000
 97351,-0.00785648,0.00155296,0.00029910,0.00020285,0.00031649,-0.07441
 506,0.07941550,-0.00656838,0.00381821,-0.01233179,-0.00015850,-0.00846
 444,0.03058764,-0.00216188,0.07694567,-0.00022762,0.00045094,-0.000215
 99,0.00011584,0.00007796,0.00018243,0.00098867,0.00001910,0.00071491,-
 0.00085030,0.00070817,-0.00019368,0.00010286,-0.00000178,-0.00005921,0
 .00534861,-0.01652940,0.00192461,0.00002621,0.00067806,-0.00034811,0.0
 7876829,-0.27504170,0.01681022,0.00415668,-0.01134499,0.00040161,-0.00
 009050,0.00157117,0.00013385,-0.08784207,0.30078087,0.00013932,0.00019
 304,-0.00004005,0.00009331,0.00003316,0.00008897,0.00042328,0.00012422
 ,0.00061289,-0.00056887,-0.00001690,0.00001329,-0.00003777,0.00004553,
 -0.00001658,0.00854837,-0.02314651,0.00215206,0.00055027,0.00088627,0.
 00062962,-0.00669118,0.01721319,-0.04960762,-0.01018998,0.02460089,-0.
 00057061,-0.00024530,0.00206478,-0.00121324,0.00816547,-0.01656701,0.0
 5037013,-0.00818366,-0.01530414,0.00603416,0.00114002,0.00002956,0.003
 36590,0.00123188,0.00531826,-0.00650082,-0.00002928,-0.00022438,0.0004
 9741,0.00018990,-0.00048357,-0.00024167,0.00006734,0.00010385,-0.00029
 589,0.00021885,0.00012611,-0.00024187,0.00030927,0.00002144,-0.0000556
 5,-0.00007213,-0.00006029,-0.00004108,-0.00000319,0.00001538,0.0000975
 5,-0.00001640,0.00001479,0.00001710,0.00508336,-0.01006884,-0.08118145
 ,0.06253032,-0.00166303,-0.00605781,0.02877972,0.00081217,0.00311858,-
 0.00103754,0.00029799,0.00189255,0.00020935,-0.00006212,0.00133676,-0.
 00130498,-0.00109485,0.00015377,0.00041968,0.00069207,0.00019420,-0.00
 016263,0.00062050,0.00003182,-0.00030912,-0.00007923,-0.00005768,-0.00
 010736,0.00007998,0.00008966,0.00018840,-0.00004932,0.00003039,0.00005
 016,0.01028147,0.08019871,-0.00123772,0.06902315,-0.13714813,0.0011461
 7,0.00276577,-0.01052839,0.00566407,0.02130772,-0.02872085,0.00025904,
 0.00023290,0.00113092,-0.00393287,-0.00377836,-0.00492991,0.00361733,-
 0.00029228,-0.00118119,-0.00111257,-0.00029671,0.00015516,-0.00115061,
 0.00018279,0.00049864,0.00014801,0.00004371,0.00031120,-0.00025866,-0.
 00026910,-0.00029066,0.00011322,-0.00001653,-0.00000365,-0.00263433,-0
 .08924750,0.18057062,-0.00023477,0.00054169,0.00119946,-0.00057487,0.0
 0052480,-0.00040887,-0.01287723,0.03214461,-0.00221147,-0.00599802,-0.
 00027661,-0.00130685,0.00200350,0.00015456,-0.00035520,-0.03770766,0.0
 1648594,-0.00121659,0.00191323,-0.00032312,-0.00103907,0.00091450,0.00
 070947,0.00043649,-0.00019344,-0.00015936,-0.00016073,0.00127081,-0.00
 053161,0.00038193,0.00109987,-0.00051146,-0.00020402,0.00006404,0.0002
 3320,-0.00062109,0.05032004,-0.00121555,0.00026757,-0.00165554,0.00052
 714,0.00032945,0.00081635,0.01064422,-0.01683283,0.00154665,0.00278877
 ,0.00189184,0.00039397,-0.00064660,0.00134773,-0.00057017,0.01416671,-
 0.08035313,0.00840298,0.01236910,-0.02585397,-0.00102120,0.01151392,-0
 .03353807,0.00010575,0.00020424,0.00198063,0.00028239,0.00009424,0.000
 84647,0.00080329,-0.00161560,-0.00139879,-0.00548083,0.00016151,0.0002
 5048,0.00034443,-0.04899210,0.15106261,-0.00121222,0.00077080,-0.00019
 895,-0.00013205,0.00046330,-0.00002121,-0.00052445,0.00237564,0.000619
 90,-0.00058885,-0.00042038,0.00073341,-0.00023315,-0.00086699,0.000314
 01,-0.00137377,0.00766382,-0.03485011,-0.00877517,0.01714187,0.0030677
 9,0.00734189,-0.02085722,0.00262248,0.00021358,0.00009319,0.00167249,0
 .00064449,0.00037963,0.00053567,-0.00086551,-0.00276710,-0.00241521,-0
 .00000080,-0.00000850,0.00013625,0.00550601,-0.00396806,0.02778347\\-0
 .00000021,0.00000036,0.,-0.00000040,0.00000040,-0.00000007,-0.00000004
 ,0.00000016,0.00000005,0.00000014,0.00000021,0.00000019,-0.00000005,0.
 00000013,0.00000003,0.,-0.00000013,-0.00000005,0.,-0.00000008,-0.00000
 005,0.00000021,-0.00000030,0.,0.00000020,-0.00000033,-0.00000002,0.000
 00022,-0.00000049,-0.00000008,0.00000037,-0.00000023,0.00000013,-0.000
 00020,0.00000050,0.00000012,-0.00000028,-0.00000021,-0.00000028\\\@
 Job cpu time:       1 days  7 hours 37 minutes 34.0 seconds.
 Elapsed time:       0 days  1 hours 10 minutes 29.2 seconds.
 File lengths (MBytes):  RWF=   8455 Int=      0 D2E=      0 Chk=     12 Scr=      2
 Normal termination of Gaussian 16 at Tue Mar  6 17:42:22 2018.
