 Entering Gaussian System, Link 0=g16
 Input=gs.com
 Output=gs.log
 Initial command:
 /projects/jasm3285/g16/l1.exe "/gpfs/summit/scratch/jasm3285/Gau-56478.inp" -scrdir="/gpfs/summit/scratch/jasm3285/"
 Entering Link 1 = /projects/jasm3285/g16/l1.exe PID=     56481.
  
 Copyright (c) 1988,1990,1992,1993,1995,1998,2003,2009,2016,
            Gaussian, Inc.  All Rights Reserved.
  
 This is part of the Gaussian(R) 16 program.  It is based on
 the Gaussian(R) 09 system (copyright 2009, Gaussian, Inc.),
 the Gaussian(R) 03 system (copyright 2003, Gaussian, Inc.),
 the Gaussian(R) 98 system (copyright 1998, Gaussian, Inc.),
 the Gaussian(R) 94 system (copyright 1995, Gaussian, Inc.),
 the Gaussian 92(TM) system (copyright 1992, Gaussian, Inc.),
 the Gaussian 90(TM) system (copyright 1990, Gaussian, Inc.),
 the Gaussian 88(TM) system (copyright 1988, Gaussian, Inc.),
 the Gaussian 86(TM) system (copyright 1986, Carnegie Mellon
 University), and the Gaussian 82(TM) system (copyright 1983,
 Carnegie Mellon University). Gaussian is a federally registered
 trademark of Gaussian, Inc.
  
 This software contains proprietary and confidential information,
 including trade secrets, belonging to Gaussian, Inc.
  
 This software is provided under written license and may be
 used, copied, transmitted, or stored only in accord with that
 written license.
  
 The following legend is applicable only to US Government
 contracts under FAR:
  
                    RESTRICTED RIGHTS LEGEND
  
 Use, reproduction and disclosure by the US Government is
 subject to restrictions as set forth in subparagraphs (a)
 and (c) of the Commercial Computer Software - Restricted
 Rights clause in FAR 52.227-19.
  
 Gaussian, Inc.
 340 Quinnipiac St., Bldg. 40, Wallingford CT 06492
  
  
 ---------------------------------------------------------------
 Warning -- This program may not be used in any manner that
 competes with the business of Gaussian, Inc. or will provide
 assistance to any competitor of Gaussian, Inc.  The licensee
 of this program is prohibited from giving any competitor of
 Gaussian, Inc. access to this program.  By using this program,
 the user acknowledges that Gaussian, Inc. is engaged in the
 business of creating and licensing software in the field of
 computational chemistry and represents and warrants to the
 licensee that it is not a competitor of Gaussian, Inc. and that
 it will not use this program in any manner prohibited above.
 ---------------------------------------------------------------
  

 Cite this work as:
 Gaussian 16, Revision A.03,
 M. J. Frisch, G. W. Trucks, H. B. Schlegel, G. E. Scuseria, 
 M. A. Robb, J. R. Cheeseman, G. Scalmani, V. Barone, 
 G. A. Petersson, H. Nakatsuji, X. Li, M. Caricato, A. V. Marenich, 
 J. Bloino, B. G. Janesko, R. Gomperts, B. Mennucci, H. P. Hratchian, 
 J. V. Ortiz, A. F. Izmaylov, J. L. Sonnenberg, D. Williams-Young, 
 F. Ding, F. Lipparini, F. Egidi, J. Goings, B. Peng, A. Petrone, 
 T. Henderson, D. Ranasinghe, V. G. Zakrzewski, J. Gao, N. Rega, 
 G. Zheng, W. Liang, M. Hada, M. Ehara, K. Toyota, R. Fukuda, 
 J. Hasegawa, M. Ishida, T. Nakajima, Y. Honda, O. Kitao, H. Nakai, 
 T. Vreven, K. Throssell, J. A. Montgomery, Jr., J. E. Peralta, 
 F. Ogliaro, M. J. Bearpark, J. J. Heyd, E. N. Brothers, K. N. Kudin, 
 V. N. Staroverov, T. A. Keith, R. Kobayashi, J. Normand, 
 K. Raghavachari, A. P. Rendell, J. C. Burant, S. S. Iyengar, 
 J. Tomasi, M. Cossi, J. M. Millam, M. Klene, C. Adamo, R. Cammi, 
 J. W. Ochterski, R. L. Martin, K. Morokuma, O. Farkas, 
 J. B. Foresman, and D. J. Fox, Gaussian, Inc., Wallingford CT, 2016.
 
 ******************************************
 Gaussian 16:  ES64L-G16RevA.03 25-Dec-2016
                 8-Feb-2018 
 ******************************************
 ----------------------------------------------------------------------
 # opt=(calcfc,tight,noeigentest) freq cbs-qb3 scf=qc geom=connectivity
  ccsd=maxcyc=1000 optcyc=100
 ----------------------------------------------------------------------
 1/6=100,7=10,10=4,11=1,18=20,19=15,26=3,38=1,57=2/1,3;
 2/9=110,12=2,17=6,18=5,40=1/2;
 3/5=4,6=6,7=700,11=2,25=1,30=1,71=2,74=-5,140=1/1,2,3;
 4//1;
 5/5=2,8=3,38=5/8;
 8/6=4,10=90,11=11/1;
 11/6=1,8=1,9=11,15=111,16=1/1,2,10;
 10/6=1,13=1/2;
 6/7=2,8=2,9=2,10=2,28=1/1;
 7/10=1,18=20,25=1/1,2,3,16;
 1/6=100,7=10,10=4,11=1,18=20,19=15,26=3/3(2);
 2/9=110/2;
 99//99;
 2/9=110/2;
 3/5=4,6=6,7=700,11=2,25=1,30=1,71=1,74=-5/1,2,3;
 4/5=5,16=3,69=1/1;
 5/5=2,8=3,38=5/8;
 7//1,2,3,16;
 1/6=100,7=10,11=1,18=20,19=15,26=3/3(-5);
 2/9=110/2;
 6/7=2,8=2,9=2,10=2,19=2,28=1/1;
 99/9=1/99;
 -------------------
 Title Card Required
 -------------------
 Symbolic Z-matrix:
 Charge =  0 Multiplicity = 2
 C                    -3.0973   -1.39024  -0.04055 
 H                    -2.74064  -2.39905  -0.04055 
 H                    -2.74062  -0.88585  -0.9142 
 H                    -4.1673   -1.39023  -0.04055 
 C                    -2.58395  -0.66429   1.21686 
 H                    -2.94061   0.34452   1.21686 
 C                    -1.04395  -0.66431   1.21686 
 H                    -0.68728  -0.16008   0.34311 
 H                    -0.68728  -0.15974   2.09042 
 O                    -3.06063  -1.33839   2.38445 
 H                    -3.5926   -0.73483   2.9082 
 O                    -0.5673   -2.01253   1.21712 
 

 GradGradGradGradGradGradGradGradGradGradGradGradGradGradGradGradGradGrad
 Berny optimization.
 Initialization pass.
                           ----------------------------
                           !    Initial Parameters    !
                           ! (Angstroms and Degrees)  !
 --------------------------                            --------------------------
 ! Name  Definition              Value          Derivative Info.                !
 --------------------------------------------------------------------------------
 ! R1    R(1,2)                  1.07           calculate D2E/DX2 analytically  !
 ! R2    R(1,3)                  1.07           calculate D2E/DX2 analytically  !
 ! R3    R(1,4)                  1.07           calculate D2E/DX2 analytically  !
 ! R4    R(1,5)                  1.54           calculate D2E/DX2 analytically  !
 ! R5    R(5,6)                  1.07           calculate D2E/DX2 analytically  !
 ! R6    R(5,7)                  1.54           calculate D2E/DX2 analytically  !
 ! R7    R(5,10)                 1.43           calculate D2E/DX2 analytically  !
 ! R8    R(7,8)                  1.07           calculate D2E/DX2 analytically  !
 ! R9    R(7,9)                  1.07           calculate D2E/DX2 analytically  !
 ! R10   R(7,12)                 1.43           calculate D2E/DX2 analytically  !
 ! R11   R(10,11)                0.96           calculate D2E/DX2 analytically  !
 ! A1    A(2,1,3)              109.4712         calculate D2E/DX2 analytically  !
 ! A2    A(2,1,4)              109.4712         calculate D2E/DX2 analytically  !
 ! A3    A(2,1,5)              109.4712         calculate D2E/DX2 analytically  !
 ! A4    A(3,1,4)              109.4712         calculate D2E/DX2 analytically  !
 ! A5    A(3,1,5)              109.4713         calculate D2E/DX2 analytically  !
 ! A6    A(4,1,5)              109.4712         calculate D2E/DX2 analytically  !
 ! A7    A(1,5,6)              109.4712         calculate D2E/DX2 analytically  !
 ! A8    A(1,5,7)              109.4712         calculate D2E/DX2 analytically  !
 ! A9    A(1,5,10)             109.4712         calculate D2E/DX2 analytically  !
 ! A10   A(6,5,7)              109.4712         calculate D2E/DX2 analytically  !
 ! A11   A(6,5,10)             109.4713         calculate D2E/DX2 analytically  !
 ! A12   A(7,5,10)             109.4712         calculate D2E/DX2 analytically  !
 ! A13   A(5,7,8)              109.4712         calculate D2E/DX2 analytically  !
 ! A14   A(5,7,9)              109.4712         calculate D2E/DX2 analytically  !
 ! A15   A(5,7,12)             109.4712         calculate D2E/DX2 analytically  !
 ! A16   A(8,7,9)              109.4713         calculate D2E/DX2 analytically  !
 ! A17   A(8,7,12)             109.4712         calculate D2E/DX2 analytically  !
 ! A18   A(9,7,12)             109.4712         calculate D2E/DX2 analytically  !
 ! A19   A(5,10,11)            109.5            calculate D2E/DX2 analytically  !
 ! D1    D(2,1,5,6)            179.9999         calculate D2E/DX2 analytically  !
 ! D2    D(2,1,5,7)             59.9999         calculate D2E/DX2 analytically  !
 ! D3    D(2,1,5,10)           -60.0001         calculate D2E/DX2 analytically  !
 ! D4    D(3,1,5,6)             59.9999         calculate D2E/DX2 analytically  !
 ! D5    D(3,1,5,7)            -60.0001         calculate D2E/DX2 analytically  !
 ! D6    D(3,1,5,10)           179.9999         calculate D2E/DX2 analytically  !
 ! D7    D(4,1,5,6)            -60.0001         calculate D2E/DX2 analytically  !
 ! D8    D(4,1,5,7)            179.9999         calculate D2E/DX2 analytically  !
 ! D9    D(4,1,5,10)            59.9999         calculate D2E/DX2 analytically  !
 ! D10   D(1,5,7,8)             59.989          calculate D2E/DX2 analytically  !
 ! D11   D(1,5,7,9)            179.989          calculate D2E/DX2 analytically  !
 ! D12   D(1,5,7,12)           -60.011          calculate D2E/DX2 analytically  !
 ! D13   D(6,5,7,8)            -60.011          calculate D2E/DX2 analytically  !
 ! D14   D(6,5,7,9)             59.989          calculate D2E/DX2 analytically  !
 ! D15   D(6,5,7,12)           179.989          calculate D2E/DX2 analytically  !
 ! D16   D(10,5,7,8)           179.989          calculate D2E/DX2 analytically  !
 ! D17   D(10,5,7,9)           -60.011          calculate D2E/DX2 analytically  !
 ! D18   D(10,5,7,12)           59.989          calculate D2E/DX2 analytically  !
 ! D19   D(1,5,10,11)         -120.1106         calculate D2E/DX2 analytically  !
 ! D20   D(6,5,10,11)           -0.1107         calculate D2E/DX2 analytically  !
 ! D21   D(7,5,10,11)          119.8894         calculate D2E/DX2 analytically  !
 --------------------------------------------------------------------------------
 Trust Radius=3.00D-01 FncErr=1.00D-07 GrdErr=1.00D-06 EigMax=2.50D+02 EigMin=1.00D-04
 Number of steps in this run=    100 maximum allowed number of steps=    100.
 GradGradGradGradGradGradGradGradGradGradGradGradGradGradGradGradGradGrad

                          Input orientation:                          
 ---------------------------------------------------------------------
 Center     Atomic      Atomic             Coordinates (Angstroms)
 Number     Number       Type             X           Y           Z
 ---------------------------------------------------------------------
      1          6           0       -3.097296   -1.390244   -0.040546
      2          1           0       -2.740641   -2.399054   -0.040546
      3          1           0       -2.740623   -0.885846   -0.914197
      4          1           0       -4.167296   -1.390231   -0.040546
      5          6           0       -2.583953   -0.664288    1.216859
      6          1           0       -2.940606    0.344523    1.216858
      7          6           0       -1.043953   -0.664308    1.216861
      8          1           0       -0.687279   -0.160079    0.343112
      9          1           0       -0.687281   -0.159742    2.090415
     10          8           0       -3.060630   -1.338390    2.384449
     11          1           0       -3.592604   -0.734830    2.908204
     12          8           0       -0.567305   -2.012532    1.217120
 ---------------------------------------------------------------------
                    Distance matrix (angstroms):
                    1          2          3          4          5
     1  C    0.000000
     2  H    1.070000   0.000000
     3  H    1.070000   1.747302   0.000000
     4  H    1.070000   1.747303   1.747303   0.000000
     5  C    1.540000   2.148263   2.148263   2.148263   0.000000
     6  H    2.148263   3.024610   2.468846   2.468846   1.070000
     7  C    2.514810   2.732977   2.732979   3.444314   1.540000
     8  H    2.732888   3.062107   2.514714   3.710927   2.148263
     9  H    3.444314   3.711038   3.710948   4.262112   2.148263
    10  O    2.425826   2.666083   3.344887   2.666082   1.430000
    11  H    3.061049   3.491505   3.919111   3.074890   1.970533
    12  O    2.893064   2.540574   3.245805   3.863796   2.425826
                    6          7          8          9         10
     6  H    0.000000
     7  C    2.148263   0.000000
     8  H    2.468914   1.070000   0.000000
     9  H    2.468777   1.070000   1.747303   0.000000
    10  O    2.051796   2.425826   3.344886   2.666168   0.000000
    11  H    2.109681   3.059614   3.918028   3.072524   0.960000
    12  O    3.344887   1.430000   2.051796   2.051796   2.834395
                   11         12
    11  H    0.000000
    12  O    3.693876   0.000000
 Stoichiometry    C3H7O2(2)
 Framework group  C1[X(C3H7O2)]
 Deg. of freedom    30
 Full point group                 C1      NOp   1
 Largest Abelian subgroup         C1      NOp   1
 Largest concise Abelian subgroup C1      NOp   1
                         Standard orientation:                         
 ---------------------------------------------------------------------
 Center     Atomic      Atomic             Coordinates (Angstroms)
 Number     Number       Type             X           Y           Z
 ---------------------------------------------------------------------
      1          6           0       -0.983342    1.230515   -0.165268
      2          1           0       -0.522628    1.356760   -1.122715
      3          1           0       -0.705985    2.042598    0.473867
      4          1           0       -2.046991    1.214608   -0.280587
      5          6           0       -0.514754   -0.097084    0.458837
      6          1           0       -0.975467   -0.223329    1.416285
      7          6           0        1.016105   -0.074192    0.624809
      8          1           0        1.293478    0.738008    1.263789
      9          1           0        1.341661   -0.996538    1.058617
     10          8           0       -0.885431   -1.182391   -0.395334
     11          1           0       -1.463317   -1.782578    0.081556
     12          8           0        1.631831    0.094271   -0.654801
 ---------------------------------------------------------------------
 Rotational constants (GHZ):           6.6436648           4.3201959           3.4363160
 Standard basis: 6-311G(2d,d,p) (5D, 7F)
 There are   137 symmetry adapted cartesian basis functions of A   symmetry.
 There are   132 symmetry adapted basis functions of A   symmetry.
   132 basis functions,   216 primitive gaussians,   137 cartesian basis functions
    21 alpha electrons       20 beta electrons
       nuclear repulsion energy       185.7156080362 Hartrees.
 NAtoms=   12 NActive=   12 NUniq=   12 SFac= 1.00D+00 NAtFMM=   60 NAOKFM=F Big=F
 Integral buffers will be    131072 words long.
 Raffenetti 2 integral format.
 Two-electron integral symmetry is turned on.
 One-electron integrals computed using PRISM.
 NBasis=   132 RedAO= T EigKep=  2.46D-03  NBF=   132
 NBsUse=   132 1.00D-06 EigRej= -1.00D+00 NBFU=   132
 ExpMin= 1.03D-01 ExpMax= 8.59D+03 ExpMxC= 1.30D+03 IAcc=3 IRadAn=         5 AccDes= 0.00D+00
 Harris functional with IExCor=  402 and IRadAn=       5 diagonalized for initial guess.
 HarFok:  IExCor=  402 AccDes= 0.00D+00 IRadAn=         5 IDoV= 1 UseB2=F ITyADJ=14
 ICtDFT=  3500011 ScaDFX=  1.000000  1.000000  1.000000  1.000000
 FoFCou: FMM=F IPFlag=           0 FMFlag=      100000 FMFlg1=           0
         NFxFlg=           0 DoJE=T BraDBF=F KetDBF=T FulRan=T
         wScrn=  0.000000 ICntrl=       500 IOpCl=  0 I1Cent=   200000004 NGrid=           0
         NMat0=    1 NMatS0=      1 NMatT0=    0 NMatD0=    1 NMtDS0=    0 NMtDT0=    0
 Petite list used in FoFCou.
 Initial guess <Sx>= 0.0000 <Sy>= 0.0000 <Sz>= 0.5000 <S**2>= 0.7500 S= 0.5000
 Keep R1 and R2 ints in memory in canonical form, NReq=78377335.
 Gradient too large for Newton-Raphson -- use scaled steepest descent instead.
     Accept linear search using points  2 and  3.
 Gradient too large for Newton-Raphson -- use scaled steepest descent instead.
     Minimum is close to point  3 DX=  6.30D-02 DF= -8.19D-05 DXR=  9.50D-02 DFR=  9.02D-03 which will be used.
 Gradient too large for Newton-Raphson -- use scaled steepest descent instead.
     Minimum is close to point  2 DX=  4.69D-02 DF= -1.23D-05 DXR=  8.57D-02 DFR=  7.40D-03 which will be used.
 Gradient too large for Newton-Raphson -- use scaled steepest descent instead.
 Gradient too large for Newton-Raphson -- use scaled steepest descent instead.
     Accept linear search using points  1 and  2.
 LinEq1:  Iter=  0 NonCon=     1 RMS=3.18D-04 Max=1.43D-02 NDo=     1
 AX will form     1 AO Fock derivatives at one time.
 LinEq1:  Iter=  1 NonCon=     1 RMS=9.61D-05 Max=3.94D-03 NDo=     1
 LinEq1:  Iter=  2 NonCon=     1 RMS=1.22D-04 Max=3.62D-03 NDo=     1
 LinEq1:  Iter=  3 NonCon=     1 RMS=3.11D-05 Max=4.07D-04 NDo=     1
 LinEq1:  Iter=  4 NonCon=     1 RMS=1.51D-05 Max=2.07D-04 NDo=     1
 LinEq1:  Iter=  5 NonCon=     1 RMS=7.94D-06 Max=1.66D-04 NDo=     1
 LinEq1:  Iter=  6 NonCon=     1 RMS=4.97D-06 Max=8.87D-05 NDo=     1
 LinEq1:  Iter=  7 NonCon=     1 RMS=2.63D-06 Max=5.34D-05 NDo=     1
 LinEq1:  Iter=  8 NonCon=     1 RMS=9.61D-07 Max=1.90D-05 NDo=     1
 LinEq1:  Iter=  9 NonCon=     1 RMS=4.74D-07 Max=6.69D-06 NDo=     1
 LinEq1:  Iter= 10 NonCon=     1 RMS=2.41D-07 Max=2.41D-06 NDo=     1
 LinEq1:  Iter= 11 NonCon=     1 RMS=7.76D-08 Max=8.61D-07 NDo=     1
 LinEq1:  Iter= 12 NonCon=     1 RMS=2.64D-08 Max=2.89D-07 NDo=     1
 LinEq1:  Iter= 13 NonCon=     1 RMS=1.50D-08 Max=1.69D-07 NDo=     1
 LinEq1:  Iter= 14 NonCon=     1 RMS=5.42D-09 Max=7.08D-08 NDo=     1
 LinEq1:  Iter= 15 NonCon=     0 RMS=1.62D-09 Max=2.13D-08 NDo=     1
 Linear equations converged to 6.761D-09 6.761D-08 after    15 iterations.
 Incorrect curvature in search direction -- initial direction reversed.
 Gradient too large for Newton-Raphson -- use scaled steepest descent instead.
     Minimum is close to point  3 DX=  1.01D-01 DF= -1.34D-06 DXR=  9.16D-02 DFR=  8.51D-03 which will be used.
 LinEq1:  Iter=  0 NonCon=     1 RMS=2.01D-04 Max=1.04D-02 NDo=     1
 LinEq1:  Iter=  1 NonCon=     1 RMS=1.76D-04 Max=6.54D-03 NDo=     1
 LinEq1:  Iter=  2 NonCon=     1 RMS=9.53D-05 Max=4.95D-03 NDo=     1
 LinEq1:  Iter=  3 NonCon=     1 RMS=4.99D-05 Max=8.45D-04 NDo=     1
 LinEq1:  Iter=  4 NonCon=     1 RMS=1.42D-05 Max=2.28D-04 NDo=     1
 LinEq1:  Iter=  5 NonCon=     1 RMS=7.24D-06 Max=1.48D-04 NDo=     1
 LinEq1:  Iter=  6 NonCon=     1 RMS=5.42D-06 Max=1.13D-04 NDo=     1
 LinEq1:  Iter=  7 NonCon=     1 RMS=2.01D-06 Max=4.71D-05 NDo=     1
 LinEq1:  Iter=  8 NonCon=     1 RMS=7.21D-07 Max=1.26D-05 NDo=     1
 LinEq1:  Iter=  9 NonCon=     1 RMS=2.05D-07 Max=2.88D-06 NDo=     1
 LinEq1:  Iter= 10 NonCon=     1 RMS=1.00D-07 Max=9.77D-07 NDo=     1
 LinEq1:  Iter= 11 NonCon=     1 RMS=4.41D-08 Max=4.57D-07 NDo=     1
 LinEq1:  Iter= 12 NonCon=     1 RMS=1.35D-08 Max=1.38D-07 NDo=     1
 LinEq1:  Iter= 13 NonCon=     0 RMS=5.72D-09 Max=5.13D-08 NDo=     1
 Linear equations converged to 6.761D-09 6.761D-08 after    13 iterations.
 LinEq1:  Iter=  0 NonCon=     1 RMS=1.26D-04 Max=4.97D-03 NDo=     1
 LinEq1:  Iter=  1 NonCon=     1 RMS=9.74D-05 Max=3.00D-03 NDo=     1
 LinEq1:  Iter=  2 NonCon=     1 RMS=7.26D-05 Max=2.93D-03 NDo=     1
 LinEq1:  Iter=  3 NonCon=     1 RMS=3.80D-05 Max=8.00D-04 NDo=     1
 LinEq1:  Iter=  4 NonCon=     1 RMS=1.94D-05 Max=4.84D-04 NDo=     1
 LinEq1:  Iter=  5 NonCon=     1 RMS=7.32D-06 Max=1.50D-04 NDo=     1
 LinEq1:  Iter=  6 NonCon=     1 RMS=5.03D-06 Max=1.08D-04 NDo=     1
 LinEq1:  Iter=  7 NonCon=     1 RMS=2.64D-06 Max=5.31D-05 NDo=     1
 LinEq1:  Iter=  8 NonCon=     1 RMS=8.95D-07 Max=1.74D-05 NDo=     1
 LinEq1:  Iter=  9 NonCon=     1 RMS=3.90D-07 Max=8.72D-06 NDo=     1
 LinEq1:  Iter= 10 NonCon=     1 RMS=2.19D-07 Max=3.77D-06 NDo=     1
 LinEq1:  Iter= 11 NonCon=     1 RMS=6.71D-08 Max=7.77D-07 NDo=     1
 LinEq1:  Iter= 12 NonCon=     1 RMS=2.18D-08 Max=2.42D-07 NDo=     1
 LinEq1:  Iter= 13 NonCon=     1 RMS=1.06D-08 Max=1.09D-07 NDo=     1
 LinEq1:  Iter= 14 NonCon=     0 RMS=4.13D-09 Max=5.49D-08 NDo=     1
 Linear equations converged to 6.761D-09 6.761D-08 after    14 iterations.
     Accept linear search using points  2 and  3.
 LinEq1:  Iter=  0 NonCon=     1 RMS=1.92D-05 Max=6.14D-04 NDo=     1
 LinEq1:  Iter=  1 NonCon=     1 RMS=1.17D-05 Max=3.07D-04 NDo=     1
 LinEq1:  Iter=  2 NonCon=     1 RMS=5.31D-06 Max=1.58D-04 NDo=     1
 LinEq1:  Iter=  3 NonCon=     1 RMS=4.45D-06 Max=1.75D-04 NDo=     1
 LinEq1:  Iter=  4 NonCon=     1 RMS=3.78D-06 Max=1.60D-04 NDo=     1
 LinEq1:  Iter=  5 NonCon=     1 RMS=1.92D-06 Max=4.33D-05 NDo=     1
 LinEq1:  Iter=  6 NonCon=     1 RMS=9.24D-07 Max=1.53D-05 NDo=     1
 LinEq1:  Iter=  7 NonCon=     1 RMS=5.43D-07 Max=1.11D-05 NDo=     1
 LinEq1:  Iter=  8 NonCon=     1 RMS=2.70D-07 Max=8.74D-06 NDo=     1
 LinEq1:  Iter=  9 NonCon=     1 RMS=1.42D-07 Max=2.91D-06 NDo=     1
 LinEq1:  Iter= 10 NonCon=     1 RMS=6.01D-08 Max=1.06D-06 NDo=     1
 LinEq1:  Iter= 11 NonCon=     1 RMS=1.93D-08 Max=2.85D-07 NDo=     1
 LinEq1:  Iter= 12 NonCon=     1 RMS=8.57D-09 Max=9.91D-08 NDo=     1
 LinEq1:  Iter= 13 NonCon=     0 RMS=4.40D-09 Max=4.74D-08 NDo=     1
 Linear equations converged to 6.761D-09 6.761D-08 after    13 iterations.
     Minimum is close to point  2 DX=  8.78D-03 DF= -1.41D-10 DXR=  8.70D-03 DFR=  7.57D-05 which will be used.
 LinEq1:  Iter=  0 NonCon=     1 RMS=1.39D-07 Max=7.92D-06 NDo=     1
 LinEq1:  Iter=  1 NonCon=     1 RMS=5.83D-08 Max=9.47D-07 NDo=     1
 LinEq1:  Iter=  2 NonCon=     1 RMS=4.24D-08 Max=6.80D-07 NDo=     1
 LinEq1:  Iter=  3 NonCon=     1 RMS=1.23D-08 Max=1.75D-07 NDo=     1
 LinEq1:  Iter=  4 NonCon=     1 RMS=8.52D-09 Max=1.46D-07 NDo=     1
 LinEq1:  Iter=  5 NonCon=     1 RMS=4.19D-09 Max=1.13D-07 NDo=     1
 LinEq1:  Iter=  6 NonCon=     1 RMS=1.92D-09 Max=4.56D-08 NDo=     1
 LinEq1:  Iter=  7 NonCon=     1 RMS=1.12D-09 Max=2.26D-08 NDo=     1
 LinEq1:  Iter=  8 NonCon=     1 RMS=6.78D-10 Max=1.00D-08 NDo=     1
 LinEq1:  Iter=  9 NonCon=     1 RMS=4.17D-10 Max=6.30D-09 NDo=     1
 LinEq1:  Iter= 10 NonCon=     1 RMS=1.60D-10 Max=3.17D-09 NDo=     1
 LinEq1:  Iter= 11 NonCon=     0 RMS=4.44D-11 Max=4.61D-10 NDo=     1
 Linear equations converged to 5.593D-11 5.593D-10 after    11 iterations.
 SCF Done:  E(UB3LYP) =  -268.967782537     a.u. after   12 cycles
            Convg  =    0.3449D-07                    95 Fock formations.
              S**2 =  0.7528                  -V/T =  2.0029
 <Sx>= 0.0000 <Sy>= 0.0000 <Sz>= 0.5000 <S**2>= 0.7528 S= 0.5014
 <L.S>=  0.00000000000    
 Annihilation of the first spin contaminant:
 S**2 before annihilation     0.7528,   after     0.7500
 DoSCS=F DFT=T ScalE2(SS,OS)=  1.000000  1.000000
 Range of M.O.s used for correlation:     1   132
 NBasis=   132 NAE=    21 NBE=    20 NFC=     0 NFV=     0
 NROrb=    132 NOA=    21 NOB=    20 NVA=   111 NVB=   112
 Symmetrizing basis deriv contribution to polar:
 IMax=3 JMax=2 DiffMx= 0.00D+00
 G2DrvN: will do    13 centers at a time, making    1 passes.
 Calling FoFCou, ICntrl=  3107 FMM=F I1Cent=   0 AccDes= 0.00D+00.
 End of G2Drv F.D. properties file   721 does not exist.
 End of G2Drv F.D. properties file   722 does not exist.
 End of G2Drv F.D. properties file   788 does not exist.
          IDoAtm=111111111111
          Differentiating once with respect to nuclear coordinates.
 Keep R1 and R2 ints in memory in canonical form, NReq=78382142.
          There are    39 degrees of freedom in the 1st order CPHF.  IDoFFX=6 NUNeed=     0.
     33 vectors produced by pass  0 Test12= 1.17D-14 2.56D-09 XBig12= 2.66D-01 1.97D-01.
 AX will form    33 AO Fock derivatives at one time.
     33 vectors produced by pass  1 Test12= 1.17D-14 2.56D-09 XBig12= 6.97D-03 1.74D-02.
     33 vectors produced by pass  2 Test12= 1.17D-14 2.56D-09 XBig12= 1.01D-04 2.23D-03.
     33 vectors produced by pass  3 Test12= 1.17D-14 2.56D-09 XBig12= 7.18D-07 1.54D-04.
     33 vectors produced by pass  4 Test12= 1.17D-14 2.56D-09 XBig12= 3.37D-09 6.30D-06.
     33 vectors produced by pass  5 Test12= 1.17D-14 2.56D-09 XBig12= 1.15D-11 3.89D-07.
     20 vectors produced by pass  6 Test12= 1.17D-14 2.56D-09 XBig12= 3.96D-14 1.95D-08.
 InvSVY:  IOpt=1 It=  1 EMax= 2.66D-15
 Solved reduced A of dimension   218 with    33 vectors.
 End of Minotr F.D. properties file   721 does not exist.
 End of Minotr F.D. properties file   722 does not exist.
 End of Minotr F.D. properties file   788 does not exist.

 **********************************************************************

            Population analysis using the SCF density.

 **********************************************************************

 Orbital symmetries:
 Alpha Orbitals:
       Occupied  (A) (A) (A) (A) (A) (A) (A) (A) (A) (A) (A) (A)
                 (A) (A) (A) (A) (A) (A) (A) (A) (A)
       Virtual   (A) (A) (A) (A) (A) (A) (A) (A) (A) (A) (A) (A)
                 (A) (A) (A) (A) (A) (A) (A) (A) (A) (A) (A) (A)
                 (A) (A) (A) (A) (A) (A) (A) (A) (A) (A) (A) (A)
                 (A) (A) (A) (A) (A) (A) (A) (A) (A) (A) (A) (A)
                 (A) (A) (A) (A) (A) (A) (A) (A) (A) (A) (A) (A)
                 (A) (A) (A) (A) (A) (A) (A) (A) (A) (A) (A) (A)
                 (A) (A) (A) (A) (A) (A) (A) (A) (A) (A) (A) (A)
                 (A) (A) (A) (A) (A) (A) (A) (A) (A) (A) (A) (A)
                 (A) (A) (A) (A) (A) (A) (A) (A) (A) (A) (A) (A)
                 (A) (A) (A)
 Beta  Orbitals:
       Occupied  (A) (A) (A) (A) (A) (A) (A) (A) (A) (A) (A) (A)
                 (A) (A) (A) (A) (A) (A) (A) (A)
       Virtual   (A) (A) (A) (A) (A) (A) (A) (A) (A) (A) (A) (A)
                 (A) (A) (A) (A) (A) (A) (A) (A) (A) (A) (A) (A)
                 (A) (A) (A) (A) (A) (A) (A) (A) (A) (A) (A) (A)
                 (A) (A) (A) (A) (A) (A) (A) (A) (A) (A) (A) (A)
                 (A) (A) (A) (A) (A) (A) (A) (A) (A) (A) (A) (A)
                 (A) (A) (A) (A) (A) (A) (A) (A) (A) (A) (A) (A)
                 (A) (A) (A) (A) (A) (A) (A) (A) (A) (A) (A) (A)
                 (A) (A) (A) (A) (A) (A) (A) (A) (A) (A) (A) (A)
                 (A) (A) (A) (A) (A) (A) (A) (A) (A) (A) (A) (A)
                 (A) (A) (A) (A)
 The electronic state is 2-A.
 Alpha  occ. eigenvalues --  -19.16324 -19.11498 -10.22678 -10.22165 -10.15135
 Alpha  occ. eigenvalues --   -1.02993  -1.00414  -0.77158  -0.68791  -0.59597
 Alpha  occ. eigenvalues --   -0.53411  -0.49161  -0.46634  -0.42915  -0.40276
 Alpha  occ. eigenvalues --   -0.39881  -0.37895  -0.34323  -0.33386  -0.30249
 Alpha  occ. eigenvalues --   -0.26801
 Alpha virt. eigenvalues --    0.02287   0.06427   0.08217   0.09438   0.09879
 Alpha virt. eigenvalues --    0.13368   0.14092   0.14514   0.18945   0.21294
 Alpha virt. eigenvalues --    0.22799   0.30056   0.33841   0.36575   0.39914
 Alpha virt. eigenvalues --    0.41306   0.43898   0.45267   0.50220   0.51184
 Alpha virt. eigenvalues --    0.53460   0.56381   0.58135   0.59300   0.60596
 Alpha virt. eigenvalues --    0.61091   0.62749   0.70874   0.75112   0.79301
 Alpha virt. eigenvalues --    0.83291   0.86706   0.89521   0.90215   0.93057
 Alpha virt. eigenvalues --    0.98394   1.01786   1.09365   1.20919   1.27560
 Alpha virt. eigenvalues --    1.33530   1.34270   1.38404   1.41345   1.45711
 Alpha virt. eigenvalues --    1.47523   1.48511   1.49929   1.51583   1.55819
 Alpha virt. eigenvalues --    1.58331   1.60488   1.62612   1.64677   1.70596
 Alpha virt. eigenvalues --    1.72595   1.76653   1.81415   1.87626   1.93496
 Alpha virt. eigenvalues --    1.96064   2.02320   2.04027   2.09084   2.11936
 Alpha virt. eigenvalues --    2.20401   2.26907   2.30269   2.37886   2.39872
 Alpha virt. eigenvalues --    2.42358   2.43945   2.50099   2.52106   2.54859
 Alpha virt. eigenvalues --    2.56128   2.60951   2.62440   2.68451   2.73148
 Alpha virt. eigenvalues --    2.77577   2.80883   2.84936   2.88762   2.93918
 Alpha virt. eigenvalues --    2.99725   3.09138   3.16342   3.18303   3.21017
 Alpha virt. eigenvalues --    3.25062   3.34934   3.76622   3.81232   3.85957
 Alpha virt. eigenvalues --    3.86738   3.88752   3.90738   4.09160   4.23263
 Alpha virt. eigenvalues --    4.78926   4.86685   4.92883   5.25811   5.33601
 Alpha virt. eigenvalues --    5.65745  23.76184  23.81790  23.97742  49.78342
 Alpha virt. eigenvalues --   49.89901
  Beta  occ. eigenvalues --  -19.13870 -19.11491 -10.22666 -10.22223 -10.15136
  Beta  occ. eigenvalues --   -1.02601  -0.95282  -0.76629  -0.67986  -0.59118
  Beta  occ. eigenvalues --   -0.53136  -0.47821  -0.45296  -0.41175  -0.40115
  Beta  occ. eigenvalues --   -0.38809  -0.37688  -0.33293  -0.29153  -0.25784
  Beta virt. eigenvalues --   -0.13763   0.02350   0.06523   0.08324   0.09533
  Beta virt. eigenvalues --    0.10062   0.13517   0.14263   0.15145   0.19029
  Beta virt. eigenvalues --    0.21406   0.23001   0.30295   0.34041   0.36782
  Beta virt. eigenvalues --    0.40201   0.41443   0.44635   0.46155   0.50268
  Beta virt. eigenvalues --    0.51448   0.53629   0.56603   0.58291   0.59594
  Beta virt. eigenvalues --    0.60674   0.61175   0.62817   0.70975   0.76196
  Beta virt. eigenvalues --    0.81306   0.84009   0.87345   0.89973   0.92433
  Beta virt. eigenvalues --    0.93287   0.99465   1.02008   1.10111   1.21241
  Beta virt. eigenvalues --    1.28244   1.33602   1.34603   1.39304   1.41476
  Beta virt. eigenvalues --    1.46030   1.47738   1.48830   1.50092   1.51707
  Beta virt. eigenvalues --    1.56137   1.58563   1.61019   1.63228   1.64958
  Beta virt. eigenvalues --    1.70781   1.72835   1.76978   1.81577   1.87930
  Beta virt. eigenvalues --    1.93674   1.96192   2.02567   2.04263   2.09574
  Beta virt. eigenvalues --    2.12203   2.20829   2.27036   2.30558   2.38667
  Beta virt. eigenvalues --    2.40146   2.42489   2.44451   2.50259   2.52232
  Beta virt. eigenvalues --    2.55107   2.56369   2.61261   2.62759   2.68956
  Beta virt. eigenvalues --    2.74295   2.80451   2.83743   2.87993   2.93462
  Beta virt. eigenvalues --    2.95627   3.00502   3.09982   3.17132   3.21356
  Beta virt. eigenvalues --    3.23230   3.25192   3.35136   3.76659   3.81887
  Beta virt. eigenvalues --    3.86101   3.87028   3.90299   3.91211   4.09259
  Beta virt. eigenvalues --    4.23343   4.87478   4.90059   4.93983   5.25849
  Beta virt. eigenvalues --    5.35719   5.65760  23.76194  23.81731  23.97741
  Beta virt. eigenvalues --   49.80712  49.90052
          Condensed to atoms (all electrons):
               1          2          3          4          5          6
     1  C    4.973088   0.406381   0.377716   0.385916   0.309006  -0.036239
     2  H    0.406381   0.534881  -0.027115  -0.025952  -0.043023   0.010942
     3  H    0.377716  -0.027115   0.609345  -0.023160  -0.030678  -0.002367
     4  H    0.385916  -0.025952  -0.023160   0.575280  -0.025158  -0.007532
     5  C    0.309006  -0.043023  -0.030678  -0.025158   5.068339   0.364255
     6  H   -0.036239   0.010942  -0.002367  -0.007532   0.364255   0.650475
     7  C   -0.096003  -0.013655   0.002858   0.010456   0.311458  -0.037881
     8  H   -0.001617   0.001116   0.000218  -0.000428  -0.036967   0.001666
     9  H    0.012271   0.001347  -0.000665  -0.000762  -0.056556   0.000741
    10  O   -0.064964   0.002851   0.004841   0.006843   0.259956  -0.029063
    11  H    0.005013  -0.001001  -0.000726   0.000884  -0.023103  -0.016989
    12  O   -0.004411   0.021593  -0.000750  -0.000090  -0.066807   0.005295
               7          8          9         10         11         12
     1  C   -0.096003  -0.001617   0.012271  -0.064964   0.005013  -0.004411
     2  H   -0.013655   0.001116   0.001347   0.002851  -0.001001   0.021593
     3  H    0.002858   0.000218  -0.000665   0.004841  -0.000726  -0.000750
     4  H    0.010456  -0.000428  -0.000762   0.006843   0.000884  -0.000090
     5  C    0.311458  -0.036967  -0.056556   0.259956  -0.023103  -0.066807
     6  H   -0.037881   0.001666   0.000741  -0.029063  -0.016989   0.005295
     7  C    4.862150   0.371985   0.380183  -0.060894   0.004486   0.261560
     8  H    0.371985   0.561346  -0.019410   0.004088  -0.000610  -0.017647
     9  H    0.380183  -0.019410   0.577325   0.007498   0.000656  -0.024777
    10  O   -0.060894   0.004088   0.007498   7.956881   0.307532  -0.000326
    11  H    0.004486  -0.000610   0.000656   0.307532   0.481509  -0.000155
    12  O    0.261560  -0.017647  -0.024777  -0.000326  -0.000155   8.061118
          Atomic-Atomic Spin Densities.
               1          2          3          4          5          6
     1  C    0.001495   0.001016  -0.000070   0.000874   0.000633  -0.001646
     2  H    0.001016  -0.001217   0.000295  -0.000182   0.001651  -0.000260
     3  H   -0.000070   0.000295  -0.000323  -0.000069  -0.000345   0.000105
     4  H    0.000874  -0.000182  -0.000069   0.000297  -0.000527  -0.000187
     5  C    0.000633   0.001651  -0.000345  -0.000527  -0.005101   0.003402
     6  H   -0.001646  -0.000260   0.000105  -0.000187   0.003402  -0.002721
     7  C    0.000100  -0.000052   0.000168   0.000006   0.014633  -0.000643
     8  H   -0.003487  -0.000127   0.000296  -0.000086  -0.002762   0.001482
     9  H    0.000680  -0.000084  -0.000014   0.000016   0.008803  -0.001228
    10  O   -0.000545   0.000131  -0.000000   0.000030  -0.003278   0.000836
    11  H   -0.000048   0.000018  -0.000003  -0.000008  -0.000059   0.000144
    12  O    0.000875  -0.002257  -0.000021  -0.000024  -0.007553  -0.000210
               7          8          9         10         11         12
     1  C    0.000100  -0.003487   0.000680  -0.000545  -0.000048   0.000875
     2  H   -0.000052  -0.000127  -0.000084   0.000131   0.000018  -0.002257
     3  H    0.000168   0.000296  -0.000014  -0.000000  -0.000003  -0.000021
     4  H    0.000006  -0.000086   0.000016   0.000030  -0.000008  -0.000024
     5  C    0.014633  -0.002762   0.008803  -0.003278  -0.000059  -0.007553
     6  H   -0.000643   0.001482  -0.001228   0.000836   0.000144  -0.000210
     7  C   -0.071412   0.006486   0.004754   0.000486  -0.000264  -0.016822
     8  H    0.006486   0.101068  -0.014235   0.000473   0.000042  -0.016149
     9  H    0.004754  -0.014235   0.045092  -0.001004  -0.000126  -0.007854
    10  O    0.000486   0.000473  -0.001004   0.003983   0.000036   0.001827
    11  H   -0.000264   0.000042  -0.000126   0.000036   0.000095   0.000062
    12  O   -0.016822  -0.016149  -0.007854   0.001827   0.000062   0.992480
 Mulliken charges and spin densities:
               1          2
     1  C   -0.266156  -0.000124
     2  H    0.131635  -0.001069
     3  H    0.090482   0.000021
     4  H    0.103702   0.000140
     5  C   -0.030723   0.009496
     6  H    0.096697  -0.000926
     7  C    0.003298  -0.062559
     8  H    0.136259   0.073003
     9  H    0.122149   0.034800
    10  O   -0.395244   0.002976
    11  H    0.242504  -0.000110
    12  O   -0.234602   0.944353
 Sum of Mulliken charges =  -0.00000   1.00000
 Mulliken charges and spin densities with hydrogens summed into heavy atoms:
               1          2
     1  C    0.059663  -0.001033
     5  C    0.065974   0.008570
     7  C    0.261706   0.045244
    10  O   -0.152740   0.002865
    12  O   -0.234602   0.944353
 APT charges:
               1
     1  C   -0.925088
     2  H    0.250414
     3  H    0.319304
     4  H    0.398551
     5  C   -0.278957
     6  H    0.336925
     7  C   -0.569571
     8  H    0.361951
     9  H    0.351478
    10  O   -0.742043
    11  H    0.634109
    12  O   -0.137074
 Sum of APT charges =  -0.00000
 APT charges with hydrogens summed into heavy atoms:
               1
     1  C    0.043182
     5  C    0.057968
     7  C    0.143858
    10  O   -0.107934
    12  O   -0.137074
 Electronic spatial extent (au):  <R**2>=            425.5624
 Charge=             -0.0000 electrons
 Dipole moment (field-independent basis, Debye):
    X=             -1.4490    Y=             -0.1443    Z=              3.1797  Tot=              3.4973
 Quadrupole moment (field-independent basis, Debye-Ang):
   XX=            -31.5192   YY=            -28.6409   ZZ=            -31.3562
   XY=              2.0349   XZ=              1.0259   YZ=             -1.5346
 Traceless Quadrupole moment (field-independent basis, Debye-Ang):
   XX=             -1.0137   YY=              1.8646   ZZ=             -0.8508
   XY=              2.0349   XZ=              1.0259   YZ=             -1.5346
 Octapole moment (field-independent basis, Debye-Ang**2):
  XXX=             -7.9828  YYY=            -11.4109  ZZZ=             -1.2896  XYY=             -2.2921
  XXY=             -6.3583  XXZ=              4.5548  XZZ=              1.0811  YZZ=             -0.7816
  YYZ=              2.1918  XYZ=              2.4101
 Hexadecapole moment (field-independent basis, Debye-Ang**3):
 XXXX=           -265.0817 YYYY=           -163.3999 ZZZZ=            -94.6939 XXXY=             16.0639
 XXXZ=              2.0594 YYYX=             20.7143 YYYZ=             -0.5956 ZZZX=             -2.2943
 ZZZY=              0.9730 XXYY=            -61.1940 XXZZ=            -61.0763 YYZZ=            -44.2228
 XXYZ=             -1.4408 YYXZ=             -2.3729 ZZXY=              2.3094
 N-N= 1.857156080362D+02 E-N=-1.002450084916D+03  KE= 2.681976427579D+02
  Exact polarizability:   0.000   0.000   0.000   0.000   0.000   0.000
 Approx polarizability:  53.382   2.208  53.958  -3.240  -0.429  58.342
                          Isotropic Fermi Contact Couplings
        Atom                 a.u.       MegaHertz       Gauss      10(-4) cm-1
     1  C(13)             -0.00106      -1.19172      -0.42524      -0.39752
     2  H(1)               0.00054       2.39390       0.85420       0.79852
     3  H(1)              -0.00003      -0.13446      -0.04798      -0.04485
     4  H(1)               0.00012       0.53221       0.18990       0.17752
     5  C(13)              0.00250       2.81431       1.00422       0.93875
     6  H(1)              -0.00020      -0.91555      -0.32669      -0.30540
     7  C(13)             -0.02848     -32.01984     -11.42547     -10.68067
     8  H(1)               0.03379     151.05474      53.90009      50.38644
     9  H(1)               0.01606      71.79836      25.61944      23.94936
    10  O(17)             -0.00038       0.22977       0.08199       0.07664
    11  H(1)              -0.00003      -0.12533      -0.04472      -0.04181
    12  O(17)              0.05045     -30.58364     -10.91300     -10.20160
 --------------------------------------------------------
       Center         ----  Spin Dipole Couplings  ----
                      3XX-RR        3YY-RR        3ZZ-RR
 --------------------------------------------------------
     1   Atom        0.007652     -0.004023     -0.003629
     2   Atom        0.009070     -0.002386     -0.006684
     3   Atom        0.002890      0.000034     -0.002924
     4   Atom        0.004169     -0.001841     -0.002328
     5   Atom        0.021001     -0.013025     -0.007976
     6   Atom        0.004017     -0.004075      0.000058
     7   Atom       -0.026428      0.014390      0.012038
     8   Atom       -0.011130     -0.007264      0.018394
     9   Atom       -0.009413     -0.002807      0.012220
    10   Atom        0.002521     -0.009985      0.007463
    11   Atom        0.003373     -0.000771     -0.002603
    12   Atom       -1.501347      3.017447     -1.516100
 --------------------------------------------------------
                        XY            XZ            YZ
 --------------------------------------------------------
     1   Atom       -0.004974     -0.002665      0.000690
     2   Atom       -0.009185      0.004056     -0.002096
     3   Atom       -0.005503     -0.002406      0.002017
     4   Atom       -0.001996     -0.000266      0.000201
     5   Atom       -0.000282     -0.010362     -0.000579
     6   Atom        0.000920     -0.005377     -0.000392
     7   Atom        0.016967     -0.020844      0.006323
     8   Atom        0.001827     -0.004527      0.011820
     9   Atom       -0.001000     -0.002082     -0.017038
    10   Atom        0.006960      0.004033      0.000474
    11   Atom        0.004114     -0.001417     -0.000865
    12   Atom        1.331709      0.328659      1.250058
 --------------------------------------------------------


 ---------------------------------------------------------------------------------
              Anisotropic Spin Dipole Couplings in Principal Axis System
 ---------------------------------------------------------------------------------

       Atom             a.u.   MegaHertz   Gauss  10(-4) cm-1        Axes

              Baa    -0.0059    -0.791    -0.282    -0.264  0.3668  0.9178  0.1519
     1 C(13)  Bbb    -0.0041    -0.555    -0.198    -0.185  0.1295 -0.2121  0.9686
              Bcc     0.0100     1.346     0.480     0.449  0.9212 -0.3357 -0.1966
 
              Baa    -0.0077    -4.116    -1.469    -1.373 -0.3952 -0.3466  0.8507
     2 H(1)   Bbb    -0.0074    -3.952    -1.410    -1.318  0.3321  0.8095  0.4842
              Bcc     0.0151     8.069     2.879     2.691  0.8565 -0.4738  0.2048
 
              Baa    -0.0043    -2.271    -0.810    -0.757  0.5352  0.8058 -0.2534
     3 H(1)   Bbb    -0.0038    -2.022    -0.721    -0.674  0.3712  0.0451  0.9274
              Bcc     0.0080     4.293     1.532     1.432  0.7588 -0.5905 -0.2750
 
              Baa    -0.0025    -1.344    -0.480    -0.448  0.2198  0.8091 -0.5451
     4 H(1)   Bbb    -0.0023    -1.209    -0.431    -0.403  0.1934  0.5115  0.8372
              Bcc     0.0048     2.553     0.911     0.852  0.9562 -0.2894 -0.0440
 
              Baa    -0.0132    -1.776    -0.634    -0.592  0.0978  0.9498  0.2972
     5 C(13)  Bbb    -0.0111    -1.488    -0.531    -0.496  0.2894 -0.3129  0.9046
              Bcc     0.0243     3.264     1.165     1.089  0.9522 -0.0024 -0.3054
 
              Baa    -0.0042    -2.258    -0.806    -0.753 -0.2642  0.9326 -0.2459
     6 H(1)   Bbb    -0.0036    -1.929    -0.688    -0.643  0.5105  0.3515  0.7848
              Bcc     0.0078     4.187     1.494     1.397  0.8183  0.0818 -0.5689
 
              Baa    -0.0414    -5.558    -1.983    -1.854  0.8734 -0.3083  0.3770
     7 C(13)  Bbb     0.0196     2.635     0.940     0.879  0.0271  0.8038  0.5943
              Bcc     0.0218     2.922     1.043     0.975 -0.4863 -0.5088  0.7104
 
              Baa    -0.0150    -8.017    -2.861    -2.674  0.6834 -0.6543  0.3240
     8 H(1)   Bbb    -0.0084    -4.457    -1.590    -1.487  0.7227  0.6690 -0.1733
              Bcc     0.0234    12.473     4.451     4.161 -0.1033  0.3526  0.9301
 
              Baa    -0.0147    -7.823    -2.792    -2.610  0.3543  0.7772  0.5200
     9 H(1)   Bbb    -0.0087    -4.646    -1.658    -1.550  0.9344 -0.3160 -0.1643
              Bcc     0.0234    12.470     4.450     4.159 -0.0366 -0.5441  0.8382
 
              Baa    -0.0132     0.952     0.340     0.318 -0.4179  0.9064  0.0609
    10 O(17)  Bbb     0.0026    -0.188    -0.067    -0.063  0.6996  0.3639 -0.6150
              Bcc     0.0106    -0.765    -0.273    -0.255  0.5796  0.2144  0.7862
 
              Baa    -0.0033    -1.763    -0.629    -0.588 -0.5271  0.8496 -0.0173
    11 H(1)   Bbb    -0.0029    -1.555    -0.555    -0.519  0.1482  0.1119  0.9826
              Bcc     0.0062     3.319     1.184     1.107  0.8368  0.5153 -0.1849
 
              Baa    -1.8687   135.219    48.250    45.104  0.8877 -0.3253  0.3258
    12 O(17)  Bbb    -1.8322   132.576    47.307    44.223 -0.3833 -0.1304  0.9144
              Bcc     3.7009  -267.796   -95.556   -89.327  0.2549  0.9366  0.2405
 

 ---------------------------------------------------------------------------------

 Calling FoFJK, ICntrl=    100147 FMM=F ISym2X=0 I1Cent= 0 IOpClX= 1 NMat=1 NMatS=1 NMatT=0.
 ***** Axes restored to original set *****
 -------------------------------------------------------------------
 Center     Atomic                   Forces (Hartrees/Bohr)
 Number     Number              X              Y              Z
 -------------------------------------------------------------------
      1        6           0.003379098    0.011176237    0.019604567
      2        1           0.004688617   -0.012858946    0.000236922
      3        1           0.004008928    0.006392449   -0.014976176
      4        1          -0.014830286   -0.000879701   -0.001299929
      5        6           0.002551472   -0.019096732   -0.010578705
      6        1          -0.003906544    0.018522054   -0.001242522
      7        6          -0.022078097   -0.044579172    0.012971932
      8        1           0.011670336    0.005769066   -0.016019130
      9        1           0.011768581    0.008390651    0.013960673
     10        8           0.001983403   -0.001784219    0.002397233
     11        1           0.000892137    0.000511157   -0.001451659
     12        8          -0.000127645    0.028437157   -0.003603207
 -------------------------------------------------------------------
 Cartesian Forces:  Max     0.044579172 RMS     0.013297102
 FormGI is forming the generalized inverse of G from B-inverse, IUseBI=4.

 GradGradGradGradGradGradGradGradGradGradGradGradGradGradGradGradGradGrad
 Berny optimization.
 Internal  Forces:  Max     0.026853846 RMS     0.007953132
 Search for a local minimum.
 Step number   1 out of a maximum of  100
 All quantities printed in internal units (Hartrees-Bohrs-Radians)
 Mixed Optimization -- RFO/linear search
 Second derivative matrix not updated -- analytic derivatives used.
 ITU=  0
     Eigenvalues ---   -0.03311  -0.00244   0.00253   0.00418   0.04172
     Eigenvalues ---    0.04286   0.04578   0.04618   0.05957   0.06087
     Eigenvalues ---    0.10628   0.11504   0.12608   0.13450   0.14535
     Eigenvalues ---    0.15856   0.17005   0.18984   0.20262   0.24160
     Eigenvalues ---    0.27653   0.32079   0.35803   0.37813   0.38048
     Eigenvalues ---    0.38182   0.38397   0.38838   0.38977   0.53588
 RFO step:  Lambda=-3.33834069D-02 EMin=-3.31115293D-02
 I=     1 Eig=   -3.31D-02 Dot1= -1.46D-03
 I=     1 Stepn= -6.00D-01 RXN=   6.00D-01 EDone=F
 I=     2 Eig=   -2.44D-03 Dot1=  4.71D-05
 I=     2 Stepn=  3.00D-01 RXN=   6.71D-01 EDone=F
 Mixed    2 eigenvectors in step.  Raw Step.Grad=  1.50D-03.
 RFO eigenvector is Hessian eigenvector with negative curvature.
 Taking step of  6.00D-01 in eigenvector direction(s).  Step.Grad=  8.61D-03.
 Linear search not attempted -- first point.
 Maximum step size (   0.300) exceeded in Quadratic search.
    -- Step size not scaled.
 Iteration  1 RMS(Cart)=  0.06401632 RMS(Int)=  0.01054697
 Iteration  2 RMS(Cart)=  0.00928129 RMS(Int)=  0.00617195
 Iteration  3 RMS(Cart)=  0.00007888 RMS(Int)=  0.00617150
 Iteration  4 RMS(Cart)=  0.00000083 RMS(Int)=  0.00617150
 Variable       Old X    -DE/DX   Delta X   Delta X   Delta X     New X
                                 (Linear)    (Quad)   (Total)
    R1        2.02201   0.01369   0.00000   0.01140   0.01140   2.03341
    R2        2.02201   0.01658   0.00000   0.00153   0.00153   2.02354
    R3        2.02201   0.01483   0.00000  -0.00086  -0.00086   2.02114
    R4        2.91018  -0.00380   0.00000   0.00779   0.00779   2.91797
    R5        2.02201   0.01876   0.00000   0.00337   0.00337   2.02538
    R6        2.91018   0.00123   0.00000  -0.07178  -0.07178   2.83840
    R7        2.70231   0.00041   0.00000   0.00878   0.00878   2.71108
    R8        2.02201   0.01969   0.00000  -0.00046  -0.00046   2.02154
    R9        2.02201   0.01928   0.00000   0.01636   0.01636   2.03837
   R10        2.70231  -0.02685   0.00000   0.01479   0.01479   2.71710
   R11        1.81414  -0.00096   0.00000   0.00012   0.00012   1.81426
    A1        1.91063  -0.00100   0.00000   0.01114   0.01119   1.92182
    A2        1.91063  -0.00066   0.00000  -0.01331  -0.01314   1.89749
    A3        1.91063  -0.00138   0.00000  -0.02981  -0.02970   1.88093
    A4        1.91063  -0.00217   0.00000  -0.00157  -0.00186   1.90877
    A5        1.91063   0.00346   0.00000   0.00848   0.00834   1.91897
    A6        1.91063   0.00175   0.00000   0.02507   0.02500   1.93563
    A7        1.91063  -0.00210   0.00000   0.00134   0.00198   1.91261
    A8        1.91063   0.00861   0.00000  -0.04683  -0.04679   1.86385
    A9        1.91063  -0.00130   0.00000  -0.00205  -0.00245   1.90819
   A10        1.91063  -0.00289   0.00000   0.04791   0.04788   1.95851
   A11        1.91063   0.00265   0.00000  -0.00228  -0.00262   1.90801
   A12        1.91063  -0.00498   0.00000   0.00191   0.00120   1.91184
   A13        1.91063   0.00296   0.00000   0.19280   0.17350   2.08414
   A14        1.91063   0.00515   0.00000  -0.02421  -0.02072   1.88992
   A15        1.91063   0.01575   0.00000   0.09122   0.07027   1.98090
   A16        1.91063  -0.00476   0.00000  -0.10453  -0.10089   1.80974
   A17        1.91063  -0.01123   0.00000   0.08415   0.05523   1.96586
   A18        1.91063  -0.00786   0.00000  -0.23942  -0.23665   1.67398
   A19        1.91114  -0.00270   0.00000  -0.01577  -0.01577   1.89537
    D1        3.14159  -0.00014   0.00000   0.01994   0.02009  -3.12150
    D2        1.04720  -0.00060   0.00000  -0.01088  -0.01081   1.03639
    D3       -1.04720   0.00103   0.00000   0.01671   0.01659  -1.03061
    D4        1.04720  -0.00019   0.00000   0.01935   0.01956   1.06676
    D5       -1.04720  -0.00064   0.00000  -0.01147  -0.01134  -1.05854
    D6        3.14159   0.00098   0.00000   0.01613   0.01606  -3.12553
    D7       -1.04720  -0.00072   0.00000   0.00073   0.00073  -1.04647
    D8        3.14159  -0.00117   0.00000  -0.03009  -0.03017   3.11142
    D9        1.04720   0.00045   0.00000  -0.00249  -0.00277   1.04442
   D10        1.04701  -0.00005   0.00000   0.13317   0.13951   1.18652
   D11        3.14140  -0.00092   0.00000   0.10837   0.10795  -3.03384
   D12       -1.04739   0.00224   0.00000  -0.14382  -0.15062  -1.19801
   D13       -1.04739  -0.00099   0.00000   0.13087   0.13786  -0.90953
   D14        1.04701  -0.00186   0.00000   0.10608   0.10630   1.15330
   D15        3.14140   0.00131   0.00000  -0.14611  -0.15227   2.98913
   D16        3.14140   0.00058   0.00000   0.10314   0.10973  -3.03206
   D17       -1.04739  -0.00029   0.00000   0.07835   0.07816  -0.96923
   D18        1.04701   0.00287   0.00000  -0.17384  -0.18041   0.86660
   D19       -2.09633   0.00273   0.00000   0.13870   0.13854  -1.95778
   D20       -0.00193   0.00099   0.00000   0.13769   0.13788   0.13594
   D21        2.09246  -0.00397   0.00000   0.19614   0.19611   2.28857
         Item               Value     Threshold  Converged?
 Maximum Force            0.026854     0.000015     NO 
 RMS     Force            0.007953     0.000010     NO 
 Maximum Displacement     0.191272     0.000060     NO 
 RMS     Displacement     0.064619     0.000040     NO 
 Predicted change in Energy=-5.944249D-03
 GradGradGradGradGradGradGradGradGradGradGradGradGradGradGradGradGradGrad

                          Input orientation:                          
 ---------------------------------------------------------------------
 Center     Atomic      Atomic             Coordinates (Angstroms)
 Number     Number       Type             X           Y           Z
 ---------------------------------------------------------------------
      1          6           0       -3.116044   -1.375098   -0.033237
      2          1           0       -2.733328   -2.380461   -0.008277
      3          1           0       -2.785551   -0.877256   -0.921812
      4          1           0       -4.184836   -1.414402   -0.025414
      5          6           0       -2.582746   -0.636758    1.213665
      6          1           0       -2.963782    0.364897    1.228413
      7          6           0       -1.083437   -0.672830    1.131094
      8          1           0       -0.586063   -0.117955    0.363560
      9          1           0       -0.684200   -0.259929    2.044127
     10          8           0       -3.014987   -1.326475    2.395046
     11          1           0       -3.643538   -0.770506    2.861462
     12          8           0       -0.530956   -1.988246    1.309418
 ---------------------------------------------------------------------
                    Distance matrix (angstroms):
                    1          2          3          4          5
     1  C    0.000000
     2  H    1.076033   0.000000
     3  H    1.070812   1.759800   0.000000
     4  H    1.069544   1.743685   1.746441   0.000000
     5  C    1.544123   2.134553   2.158526   2.169502   0.000000
     6  H    2.154653   3.019851   2.489614   2.495789   1.071783
     7  C    2.445473   2.633688   2.674586   3.392067   1.502015
     8  H    2.852834   3.141328   2.658283   3.844899   2.231273
     9  H    3.387169   3.592763   3.686945   4.227324   2.106216
    10  O    2.430872   2.639352   3.354995   2.689778   1.434644
    11  H    3.003842   3.414065   3.880812   3.006935   1.964282
    12  O    2.976802   2.596266   3.360935   3.932164   2.458766
                    6          7          8          9         10
     6  H    0.000000
     7  C    2.149895   0.000000
     8  H    2.575784   1.069755   0.000000
     9  H    2.500459   1.078660   1.689406   0.000000
    10  O    2.055334   2.399107   3.389267   2.587129   0.000000
    11  H    2.101918   3.091575   4.001686   3.112300   0.960063
    12  O    3.385630   1.437829   2.096586   1.884240   2.790509
                   11         12
    11  H    0.000000
    12  O    3.685091   0.000000
 Stoichiometry    C3H7O2(2)
 Framework group  C1[X(C3H7O2)]
 Deg. of freedom    30
 Full point group                 C1      NOp   1
 Largest Abelian subgroup         C1      NOp   1
 Largest concise Abelian subgroup C1      NOp   1
                         Standard orientation:                         
 ---------------------------------------------------------------------
 Center     Atomic      Atomic             Coordinates (Angstroms)
 Number     Number       Type             X           Y           Z
 ---------------------------------------------------------------------
      1          6           0       -1.068758    1.165021   -0.242413
      2          1           0       -0.576021    1.237443   -1.196255
      3          1           0       -0.867322    2.038491    0.343344
      4          1           0       -2.122548    1.082863   -0.405814
      5          6           0       -0.523244   -0.088311    0.475841
      6          1           0       -1.010746   -0.199864    1.423796
      7          6           0        0.959452    0.104497    0.618977
      8          1           0        1.329502    0.865619    1.273294
      9          1           0        1.381735   -0.803765    1.019283
     10          8           0       -0.780879   -1.247166   -0.329692
     11          1           0       -1.428164   -1.795100    0.120321
     12          8           0        1.666987    0.058050   -0.631858
 ---------------------------------------------------------------------
 Rotational constants (GHZ):           6.7108862           4.3166925           3.4226735
 Standard basis: 6-311G(2d,d,p) (5D, 7F)
 There are   137 symmetry adapted cartesian basis functions of A   symmetry.
 There are   132 symmetry adapted basis functions of A   symmetry.
   132 basis functions,   216 primitive gaussians,   137 cartesian basis functions
    21 alpha electrons       20 beta electrons
       nuclear repulsion energy       185.9649313896 Hartrees.
 NAtoms=   12 NActive=   12 NUniq=   12 SFac= 1.00D+00 NAtFMM=   60 NAOKFM=F Big=F
 Integral buffers will be    131072 words long.
 Raffenetti 2 integral format.
 Two-electron integral symmetry is turned on.
 One-electron integrals computed using PRISM.
 NBasis=   132 RedAO= T EigKep=  2.22D-03  NBF=   132
 NBsUse=   132 1.00D-06 EigRej= -1.00D+00 NBFU=   132
 Initial guess from the checkpoint file:  "/gpfs/summit/scratch/jasm3285/Gau-56481.chk"
 B after Tr=    -0.000000    0.000000   -0.000000
         Rot=    0.998975    0.036663    0.008172   -0.025263 Ang=   5.19 deg.
 Initial guess <Sx>= 0.0000 <Sy>= 0.0000 <Sz>= 0.5000 <S**2>= 0.7529 S= 0.5014
 ExpMin= 1.03D-01 ExpMax= 8.59D+03 ExpMxC= 1.30D+03 IAcc=2 IRadAn=         4 AccDes= 0.00D+00
 Harris functional with IExCor=  402 and IRadAn=       4 diagonalized for initial guess.
 HarFok:  IExCor=  402 AccDes= 0.00D+00 IRadAn=         4 IDoV= 1 UseB2=F ITyADJ=14
 ICtDFT=  3500011 ScaDFX=  1.000000  1.000000  1.000000  1.000000
 FoFCou: FMM=F IPFlag=           0 FMFlag=      100000 FMFlg1=           0
         NFxFlg=           0 DoJE=T BraDBF=F KetDBF=T FulRan=T
         wScrn=  0.000000 ICntrl=       500 IOpCl=  0 I1Cent=   200000004 NGrid=           0
         NMat0=    1 NMatS0=      1 NMatT0=    0 NMatD0=    1 NMtDS0=    0 NMtDT0=    0
 Petite list used in FoFCou.
 Keep R1 and R2 ints in memory in canonical form, NReq=78377335.
 Gradient too large for Newton-Raphson -- use scaled steepest descent instead.
     Accept linear search using points  3 and  4.
 Gradient too large for Newton-Raphson -- use scaled steepest descent instead.
 Gradient too large for Newton-Raphson -- use scaled steepest descent instead.
 Gradient too large for Newton-Raphson -- use scaled steepest descent instead.
     Accept linear search using points  1 and  2.
 Gradient too large for Newton-Raphson -- use scaled steepest descent instead.
 Gradient too large for Newton-Raphson -- use scaled steepest descent instead.
 Gradient too large for Newton-Raphson -- use scaled steepest descent instead.
 Gradient too large for Newton-Raphson -- use scaled steepest descent instead.
 Gradient too large for Newton-Raphson -- use scaled steepest descent instead.
     Accept linear search using points  1 and  2.
 Gradient too large for Newton-Raphson -- use scaled steepest descent instead.
 Gradient too large for Newton-Raphson -- use scaled steepest descent instead.
 Gradient too large for Newton-Raphson -- use scaled steepest descent instead.
 Gradient too large for Newton-Raphson -- use scaled steepest descent instead.
     Accept linear search using points  1 and  2.
 Gradient too large for Newton-Raphson -- use scaled steepest descent instead.
 Gradient too large for Newton-Raphson -- use scaled steepest descent instead.
     Minimum is close to point  3 DX=  1.26D-04 DF= -7.60D-11 DXR=  1.26D-03 DFR=  1.58D-06 which will be used.
 Gradient too large for Newton-Raphson -- use scaled steepest descent instead.
     Accept linear search using points  1 and  2.
 Gradient too large for Newton-Raphson -- use scaled steepest descent instead.
     Accept linear search using points  1 and  2.
 Gradient too large for Newton-Raphson -- use scaled steepest descent instead.
 Gradient too large for Newton-Raphson -- use scaled steepest descent instead.
 Gradient too large for Newton-Raphson -- use scaled steepest descent instead.
     Minimum is close to point  3 DX=  4.67D-04 DF= -4.72D-11 DXR=  1.55D-03 DFR=  2.41D-06 which will be used.
 Gradient too large for Newton-Raphson -- use scaled steepest descent instead.
     Accept linear search using points  1 and  2.
 Gradient too large for Newton-Raphson -- use scaled steepest descent instead.
 Gradient too large for Newton-Raphson -- use scaled steepest descent instead.
 Gradient too large for Newton-Raphson -- use scaled steepest descent instead.
 Gradient too large for Newton-Raphson -- use scaled steepest descent instead.
     Accept linear search using points  1 and  2.
 LinEq1:  Iter=  0 NonCon=     1 RMS=7.44D-04 Max=4.68D-02 NDo=     1
 AX will form     1 AO Fock derivatives at one time.
 LinEq1:  Iter=  1 NonCon=     1 RMS=1.53D-04 Max=5.22D-03 NDo=     1
 LinEq1:  Iter=  2 NonCon=     1 RMS=5.50D-05 Max=1.02D-03 NDo=     1
 LinEq1:  Iter=  3 NonCon=     1 RMS=4.14D-05 Max=7.15D-04 NDo=     1
 LinEq1:  Iter=  4 NonCon=     1 RMS=2.12D-05 Max=4.14D-04 NDo=     1
 LinEq1:  Iter=  5 NonCon=     1 RMS=1.08D-05 Max=2.20D-04 NDo=     1
 LinEq1:  Iter=  6 NonCon=     1 RMS=5.65D-06 Max=1.54D-04 NDo=     1
 LinEq1:  Iter=  7 NonCon=     1 RMS=2.41D-06 Max=3.22D-05 NDo=     1
 LinEq1:  Iter=  8 NonCon=     1 RMS=1.40D-06 Max=1.95D-05 NDo=     1
 LinEq1:  Iter=  9 NonCon=     1 RMS=4.16D-07 Max=7.03D-06 NDo=     1
 LinEq1:  Iter= 10 NonCon=     1 RMS=1.29D-07 Max=1.15D-06 NDo=     1
 LinEq1:  Iter= 11 NonCon=     1 RMS=6.78D-08 Max=6.78D-07 NDo=     1
 LinEq1:  Iter= 12 NonCon=     1 RMS=2.75D-08 Max=2.79D-07 NDo=     1
 LinEq1:  Iter= 13 NonCon=     1 RMS=8.97D-09 Max=9.00D-08 NDo=     1
 LinEq1:  Iter= 14 NonCon=     0 RMS=4.58D-09 Max=4.26D-08 NDo=     1
 Linear equations converged to 6.761D-09 6.761D-08 after    14 iterations.
     Accept linear search using points  1 and  2.
 Gradient too large for Newton-Raphson -- use scaled steepest descent instead.
 LinEq1:  Iter=  0 NonCon=     1 RMS=1.64D-04 Max=7.00D-03 NDo=     1
 LinEq1:  Iter=  1 NonCon=     1 RMS=1.65D-04 Max=6.44D-03 NDo=     1
 LinEq1:  Iter=  2 NonCon=     1 RMS=6.52D-05 Max=1.34D-03 NDo=     1
 LinEq1:  Iter=  3 NonCon=     1 RMS=6.55D-05 Max=1.80D-03 NDo=     1
 LinEq1:  Iter=  4 NonCon=     1 RMS=2.00D-05 Max=4.16D-04 NDo=     1
 LinEq1:  Iter=  5 NonCon=     1 RMS=9.57D-06 Max=1.46D-04 NDo=     1
 LinEq1:  Iter=  6 NonCon=     1 RMS=4.48D-06 Max=4.02D-05 NDo=     1
 LinEq1:  Iter=  7 NonCon=     1 RMS=2.43D-06 Max=5.01D-05 NDo=     1
 LinEq1:  Iter=  8 NonCon=     1 RMS=1.07D-06 Max=1.40D-05 NDo=     1
 LinEq1:  Iter=  9 NonCon=     1 RMS=5.57D-07 Max=9.14D-06 NDo=     1
 LinEq1:  Iter= 10 NonCon=     1 RMS=1.58D-07 Max=1.63D-06 NDo=     1
 LinEq1:  Iter= 11 NonCon=     1 RMS=4.94D-08 Max=4.37D-07 NDo=     1
 LinEq1:  Iter= 12 NonCon=     1 RMS=2.46D-08 Max=3.23D-07 NDo=     1
 LinEq1:  Iter= 13 NonCon=     1 RMS=1.06D-08 Max=1.13D-07 NDo=     1
 LinEq1:  Iter= 14 NonCon=     0 RMS=3.14D-09 Max=3.12D-08 NDo=     1
 Linear equations converged to 6.761D-09 6.761D-08 after    14 iterations.
     Minimum is close to point  2 DX=  1.51D-03 DF= -2.58D-10 DXR=  1.51D-03 DFR=  2.27D-06 which will be used.
 LinEq1:  Iter=  0 NonCon=     1 RMS=6.20D-06 Max=9.55D-05 NDo=     1
 LinEq1:  Iter=  1 NonCon=     1 RMS=3.03D-06 Max=3.82D-05 NDo=     1
 LinEq1:  Iter=  2 NonCon=     1 RMS=1.16D-06 Max=2.37D-05 NDo=     1
 LinEq1:  Iter=  3 NonCon=     1 RMS=8.56D-07 Max=3.09D-05 NDo=     1
 LinEq1:  Iter=  4 NonCon=     1 RMS=8.52D-07 Max=3.12D-05 NDo=     1
 LinEq1:  Iter=  5 NonCon=     1 RMS=5.00D-07 Max=1.13D-05 NDo=     1
 LinEq1:  Iter=  6 NonCon=     1 RMS=1.48D-07 Max=2.63D-06 NDo=     1
 LinEq1:  Iter=  7 NonCon=     1 RMS=6.89D-08 Max=1.38D-06 NDo=     1
 LinEq1:  Iter=  8 NonCon=     1 RMS=4.80D-08 Max=8.43D-07 NDo=     1
 LinEq1:  Iter=  9 NonCon=     1 RMS=2.25D-08 Max=3.17D-07 NDo=     1
 LinEq1:  Iter= 10 NonCon=     1 RMS=1.37D-08 Max=1.72D-07 NDo=     1
 LinEq1:  Iter= 11 NonCon=     1 RMS=5.73D-09 Max=9.50D-08 NDo=     1
 LinEq1:  Iter= 12 NonCon=     0 RMS=1.84D-09 Max=2.43D-08 NDo=     1
 Linear equations converged to 6.740D-09 6.740D-08 after    12 iterations.
     Minimum is close to point  2 DX=  4.83D-05 DF=  0.00D+00 DXR=  4.83D-05 DFR=  0.00D+00 which will be used.
 SCF Done:  E(UB3LYP) =  -268.963540753     a.u. after   30 cycles
            Convg  =    0.7672D-07                   138 Fock formations.
              S**2 =  0.7530                  -V/T =  2.0028
 <Sx>= 0.0000 <Sy>= 0.0000 <Sz>= 0.5000 <S**2>= 0.7530 S= 0.5015
 <L.S>=  0.00000000000    
 Annihilation of the first spin contaminant:
 S**2 before annihilation     0.7530,   after     0.7500
 Calling FoFJK, ICntrl=      2127 FMM=F ISym2X=0 I1Cent= 0 IOpClX= 1 NMat=1 NMatS=1 NMatT=0.
 ***** Axes restored to original set *****
 -------------------------------------------------------------------
 Center     Atomic                   Forces (Hartrees/Bohr)
 Number     Number              X              Y              Z
 -------------------------------------------------------------------
      1        6           0.001775737    0.007076407    0.018209241
      2        1           0.003740529   -0.009870604   -0.001212401
      3        1           0.004185215    0.005552278   -0.014198683
      4        1          -0.015408954   -0.000440125   -0.000380674
      5        6          -0.013646162   -0.026789649   -0.016430329
      6        1          -0.000239163    0.017359727   -0.001252206
      7        6           0.022134668   -0.041745236    0.035240980
      8        1           0.001611445    0.005472890   -0.020079205
      9        1           0.005144851    0.013262509    0.017055756
     10        8           0.004120621    0.001735846    0.000000322
     11        1           0.000359247    0.000342160   -0.001220276
     12        8          -0.013778035    0.028043796   -0.015732525
 -------------------------------------------------------------------
 Cartesian Forces:  Max     0.041745236 RMS     0.015010469

 GradGradGradGradGradGradGradGradGradGradGradGradGradGradGradGradGradGrad
 Berny optimization.
 Using GEDIIS/GDIIS optimizer.
 FormGI is forming the generalized inverse of G from B-inverse, IUseBI=4.
 Internal  Forces:  Max     0.032900948 RMS     0.008691038
 Search for a local minimum.
 Step number   2 out of a maximum of  100
 All quantities printed in internal units (Hartrees-Bohrs-Radians)
 Mixed Optimization -- RFO/linear search
 Update second derivatives using D2CorX and points    2    1
 ITU=  0  0
 Use linear search instead of GDIIS.
     Eigenvalues ---   -0.00238   0.00252   0.00410   0.03234   0.04181
     Eigenvalues ---    0.04312   0.04578   0.04618   0.05960   0.06135
     Eigenvalues ---    0.11212   0.12465   0.13249   0.14490   0.15287
     Eigenvalues ---    0.15883   0.17140   0.18973   0.20774   0.24503
     Eigenvalues ---    0.28492   0.31931   0.35804   0.37856   0.38074
     Eigenvalues ---    0.38294   0.38401   0.38861   0.39013   0.53589
 RFO step:  Lambda=-1.25889336D-02 EMin=-2.37508165D-03
 Quartic linear search produced a step of -0.83022.
 Iteration  1 RMS(Cart)=  0.07448317 RMS(Int)=  0.02748238
 Iteration  2 RMS(Cart)=  0.02256281 RMS(Int)=  0.00297030
 Iteration  3 RMS(Cart)=  0.00102491 RMS(Int)=  0.00278902
 Iteration  4 RMS(Cart)=  0.00000281 RMS(Int)=  0.00278902
 Iteration  5 RMS(Cart)=  0.00000001 RMS(Int)=  0.00278902
 Variable       Old X    -DE/DX   Delta X   Delta X   Delta X     New X
                                 (Linear)    (Quad)   (Total)
    R1        2.03341   0.01052  -0.00947   0.03511   0.02565   2.05906
    R2        2.02354   0.01566  -0.00127   0.04238   0.04111   2.06465
    R3        2.02114   0.01541   0.00072   0.03867   0.03939   2.06053
    R4        2.91797  -0.00109  -0.00647  -0.02375  -0.03022   2.88775
    R5        2.02538   0.01629  -0.00280   0.04740   0.04461   2.06998
    R6        2.83840   0.01406   0.05959  -0.00037   0.05922   2.89762
    R7        2.71108  -0.00335  -0.00729   0.00788   0.00059   2.71167
    R8        2.02154   0.01799   0.00038   0.06160   0.06198   2.08353
    R9        2.03837   0.02142  -0.01359   0.05587   0.04228   2.08065
   R10        2.71710  -0.03290  -0.01228  -0.13877  -0.15105   2.56605
   R11        1.81426  -0.00063  -0.00010  -0.00215  -0.00225   1.81201
    A1        1.92182  -0.00204  -0.00929  -0.01286  -0.02250   1.89932
    A2        1.89749  -0.00050   0.01091  -0.01184  -0.00107   1.89643
    A3        1.88093   0.00128   0.02466  -0.00116   0.02325   1.90418
    A4        1.90877  -0.00129   0.00155  -0.01828  -0.01642   1.89235
    A5        1.91897   0.00270  -0.00692   0.03061   0.02368   1.94265
    A6        1.93563  -0.00017  -0.02075   0.01317  -0.00748   1.92815
    A7        1.91261  -0.00299  -0.00165   0.00660   0.00623   1.91884
    A8        1.86385   0.01463   0.03884   0.04772   0.08744   1.95128
    A9        1.90819  -0.00264   0.00203   0.02401   0.02753   1.93571
   A10        1.95851  -0.00681  -0.03975  -0.03407  -0.07518   1.88334
   A11        1.90801   0.00408   0.00218   0.01101   0.00988   1.91789
   A12        1.91184  -0.00614  -0.00100  -0.05339  -0.05673   1.85511
   A13        2.08414  -0.01137  -0.14405  -0.01172  -0.15031   1.93383
   A14        1.88992   0.00088   0.01720   0.01445   0.02591   1.91582
   A15        1.98090   0.00189  -0.05834   0.08530   0.02787   2.00877
   A16        1.80974   0.00572   0.08376  -0.04533   0.03721   1.84695
   A17        1.96586   0.00033  -0.04585  -0.07279  -0.10830   1.85756
   A18        1.67398   0.00760   0.19647   0.03132   0.21916   1.89315
   A19        1.89537  -0.00206   0.01309  -0.01534  -0.00225   1.89312
    D1       -3.12150  -0.00094  -0.01668  -0.02114  -0.03726   3.12442
    D2        1.03639   0.00015   0.00897  -0.01269  -0.00337   1.03302
    D3       -1.03061   0.00062  -0.01377   0.01101  -0.00350  -1.03411
    D4        1.06676  -0.00080  -0.01624  -0.02261  -0.03853   1.02822
    D5       -1.05854   0.00029   0.00941  -0.01417  -0.00464  -1.06318
    D6       -3.12553   0.00075  -0.01333   0.00954  -0.00477  -3.13030
    D7       -1.04647  -0.00086  -0.00060  -0.02864  -0.02863  -1.07510
    D8        3.11142   0.00023   0.02505  -0.02020   0.00527   3.11669
    D9        1.04442   0.00069   0.00230   0.00351   0.00514   1.04956
   D10        1.18652  -0.00321  -0.11583   0.04984  -0.06885   1.11766
   D11       -3.03384  -0.00257  -0.08962  -0.00671  -0.09808  -3.13192
   D12       -1.19801   0.00777   0.12505   0.07744   0.20736  -0.99065
   D13       -0.90953  -0.00502  -0.11446   0.03080  -0.08494  -0.99447
   D14        1.15330  -0.00437  -0.08825  -0.02575  -0.11417   1.03913
   D15        2.98913   0.00597   0.12642   0.05840   0.19128  -3.10278
   D16       -3.03206  -0.00136  -0.09110   0.07685  -0.01895  -3.05101
   D17       -0.96923  -0.00072  -0.06489   0.02030  -0.04818  -1.01741
   D18        0.86660   0.00963   0.14978   0.10445   0.25727   1.12386
   D19       -1.95778   0.00525  -0.11502   0.43212   0.31624  -1.64154
   D20        0.13594   0.00247  -0.11447   0.46144   0.34773   0.48368
   D21        2.28857  -0.00735  -0.16281   0.39133   0.22860   2.51717
         Item               Value     Threshold  Converged?
 Maximum Force            0.032901     0.000015     NO 
 RMS     Force            0.008691     0.000010     NO 
 Maximum Displacement     0.241713     0.000060     NO 
 RMS     Displacement     0.088887     0.000040     NO 
 Predicted change in Energy=-9.171186D-03
 GradGradGradGradGradGradGradGradGradGradGradGradGradGradGradGradGradGrad

                          Input orientation:                          
 ---------------------------------------------------------------------
 Center     Atomic      Atomic             Coordinates (Angstroms)
 Number     Number       Type             X           Y           Z
 ---------------------------------------------------------------------
      1          6           0       -3.132503   -1.383080   -0.007019
      2          1           0       -2.798423   -2.420167    0.002068
      3          1           0       -2.802375   -0.914519   -0.937161
      4          1           0       -4.222473   -1.367483    0.018760
      5          6           0       -2.558618   -0.662139    1.212032
      6          1           0       -2.871991    0.387455    1.207152
      7          6           0       -1.025699   -0.696446    1.224504
      8          1           0       -0.614716   -0.145604    0.362360
      9          1           0       -0.648870   -0.177621    2.119543
     10          8           0       -2.985253   -1.293289    2.428063
     11          1           0       -3.771447   -0.844200    2.743746
     12          8           0       -0.477097   -1.937928    1.183996
 ---------------------------------------------------------------------
                    Distance matrix (angstroms):
                    1          2          3          4          5
     1  C    0.000000
     2  H    1.089606   0.000000
     3  H    1.092565   1.774583   0.000000
     4  H    1.090387   1.770972   1.770774   0.000000
     5  C    1.528131   2.147599   2.177647   2.165599   0.000000
     6  H    2.162607   3.056203   2.509594   2.513142   1.095388
     7  C    2.535101   2.758281   2.806586   3.481877   1.533354
     8  H    2.829671   3.173645   2.658164   3.824521   2.183462
     9  H    3.484800   3.759427   3.811043   4.312737   2.169210
    10  O    2.441182   2.681457   3.391408   2.709420   1.434956
    11  H    2.874952   3.308661   3.806983   2.811191   1.962204
    12  O    2.962694   2.649163   3.309621   3.963714   2.441548
                    6          7          8          9         10
     6  H    0.000000
     7  C    2.141013   0.000000
     8  H    2.468424   1.102554   0.000000
     9  H    2.468611   1.101034   1.757807   0.000000
    10  O    2.080469   2.375843   3.347202   2.607410   0.000000
    11  H    2.164975   3.141505   4.015468   3.253374   0.958872
    12  O    3.338183   1.357897   1.976475   2.000859   2.872998
                   11         12
    11  H    0.000000
    12  O    3.805497   0.000000
 Stoichiometry    C3H7O2(2)
 Framework group  C1[X(C3H7O2)]
 Deg. of freedom    30
 Full point group                 C1      NOp   1
 Largest Abelian subgroup         C1      NOp   1
 Largest concise Abelian subgroup C1      NOp   1
                         Standard orientation:                         
 ---------------------------------------------------------------------
 Center     Atomic      Atomic             Coordinates (Angstroms)
 Number     Number       Type             X           Y           Z
 ---------------------------------------------------------------------
      1          6           0       -1.060320    1.194577   -0.159446
      2          1           0       -0.634546    1.328375   -1.153456
      3          1           0       -0.807124    2.063617    0.452402
      4          1           0       -2.145672    1.140766   -0.249222
      5          6           0       -0.509938   -0.093655    0.451063
      6          1           0       -0.916073   -0.232751    1.458824
      7          6           0        1.019343   -0.064669    0.558908
      8          1           0        1.348087    0.728222    1.250917
      9          1           0        1.380065   -1.010210    0.992622
     10          8           0       -0.834356   -1.227272   -0.366719
     11          1           0       -1.645782   -1.617463   -0.036908
     12          8           0        1.675174    0.150013   -0.610572
 ---------------------------------------------------------------------
 Rotational constants (GHZ):           6.8383246           4.2500768           3.3380684
 Standard basis: 6-311G(2d,d,p) (5D, 7F)
 There are   137 symmetry adapted cartesian basis functions of A   symmetry.
 There are   132 symmetry adapted basis functions of A   symmetry.
   132 basis functions,   216 primitive gaussians,   137 cartesian basis functions
    21 alpha electrons       20 beta electrons
       nuclear repulsion energy       185.7634152964 Hartrees.
 NAtoms=   12 NActive=   12 NUniq=   12 SFac= 1.00D+00 NAtFMM=   60 NAOKFM=F Big=F
 Integral buffers will be    131072 words long.
 Raffenetti 2 integral format.
 Two-electron integral symmetry is turned on.
 One-electron integrals computed using PRISM.
 NBasis=   132 RedAO= T EigKep=  2.51D-03  NBF=   132
 NBsUse=   132 1.00D-06 EigRej= -1.00D+00 NBFU=   132
 Lowest energy guess from the checkpoint file:  "/gpfs/summit/scratch/jasm3285/Gau-56481.chk"
 B after Tr=     0.000000    0.000000   -0.000000
         Rot=    0.999905   -0.000888   -0.000304   -0.013750 Ang=  -1.58 deg.
 B after Tr=     0.000000   -0.000000   -0.000000
         Rot=    0.999222   -0.036736   -0.008739    0.011377 Ang=  -4.52 deg.
 Initial guess <Sx>= 0.0000 <Sy>= 0.0000 <Sz>= 0.5000 <S**2>= 0.7527 S= 0.5014
 Keep R1 and R2 ints in memory in canonical form, NReq=78377335.
 Gradient too large for Newton-Raphson -- use scaled steepest descent instead.
     Minimum is close to point  4 DX=  5.90D-03 DF= -1.18D-06 DXR=  7.32D-03 DFR=  5.41D-05 which will be used.
 Gradient too large for Newton-Raphson -- use scaled steepest descent instead.
 Gradient too large for Newton-Raphson -- use scaled steepest descent instead.
 Gradient too large for Newton-Raphson -- use scaled steepest descent instead.
 Gradient too large for Newton-Raphson -- use scaled steepest descent instead.
     Accept linear search using points  1 and  2.
 Gradient too large for Newton-Raphson -- use scaled steepest descent instead.
     Minimum is close to point  4 DX=  4.92D-02 DF= -4.27D-06 DXR=  7.58D-02 DFR=  5.78D-03 which will be used.
 Gradient too large for Newton-Raphson -- use scaled steepest descent instead.
 Gradient too large for Newton-Raphson -- use scaled steepest descent instead.
     Accept linear search using points  1 and  2.
 Gradient too large for Newton-Raphson -- use scaled steepest descent instead.
     Accept linear search using points  1 and  2.
 Gradient too large for Newton-Raphson -- use scaled steepest descent instead.
     Accept linear search using points  4 and  5.
 Gradient too large for Newton-Raphson -- use scaled steepest descent instead.
 Gradient too large for Newton-Raphson -- use scaled steepest descent instead.
 Gradient too large for Newton-Raphson -- use scaled steepest descent instead.
     Accept linear search using points  1 and  2.
 Gradient too large for Newton-Raphson -- use scaled steepest descent instead.
 Gradient too large for Newton-Raphson -- use scaled steepest descent instead.
 LinEq1:  Iter=  0 NonCon=     1 RMS=1.77D-04 Max=3.64D-03 NDo=     1
 AX will form     1 AO Fock derivatives at one time.
 LinEq1:  Iter=  1 NonCon=     1 RMS=2.18D-05 Max=4.78D-04 NDo=     1
 LinEq1:  Iter=  2 NonCon=     1 RMS=1.62D-05 Max=6.25D-04 NDo=     1
 LinEq1:  Iter=  3 NonCon=     1 RMS=1.24D-05 Max=4.71D-04 NDo=     1
 LinEq1:  Iter=  4 NonCon=     1 RMS=8.37D-06 Max=1.21D-04 NDo=     1
 LinEq1:  Iter=  5 NonCon=     1 RMS=5.06D-06 Max=9.42D-05 NDo=     1
 LinEq1:  Iter=  6 NonCon=     1 RMS=1.72D-06 Max=4.59D-05 NDo=     1
 LinEq1:  Iter=  7 NonCon=     1 RMS=1.24D-06 Max=2.17D-05 NDo=     1
 LinEq1:  Iter=  8 NonCon=     1 RMS=7.36D-07 Max=1.85D-05 NDo=     1
 LinEq1:  Iter=  9 NonCon=     1 RMS=3.30D-07 Max=4.83D-06 NDo=     1
 LinEq1:  Iter= 10 NonCon=     1 RMS=1.95D-07 Max=3.14D-06 NDo=     1
 LinEq1:  Iter= 11 NonCon=     1 RMS=7.09D-08 Max=8.80D-07 NDo=     1
 LinEq1:  Iter= 12 NonCon=     1 RMS=1.89D-08 Max=2.05D-07 NDo=     1
 LinEq1:  Iter= 13 NonCon=     1 RMS=1.10D-08 Max=9.93D-08 NDo=     1
 LinEq1:  Iter= 14 NonCon=     0 RMS=4.66D-09 Max=4.60D-08 NDo=     1
 Linear equations converged to 6.761D-09 6.761D-08 after    14 iterations.
     Accept linear search using points  1 and  2.
     Minimum is close to point  2 DX= -6.18D-04 DF= -2.98D-11 DXR=  6.18D-04 DFR=  3.83D-07 which will be used.
 LinEq1:  Iter=  0 NonCon=     1 RMS=7.94D-07 Max=1.20D-05 NDo=     1
 LinEq1:  Iter=  1 NonCon=     1 RMS=3.49D-07 Max=4.96D-06 NDo=     1
 LinEq1:  Iter=  2 NonCon=     1 RMS=2.28D-07 Max=2.48D-06 NDo=     1
 LinEq1:  Iter=  3 NonCon=     1 RMS=7.69D-08 Max=2.32D-06 NDo=     1
 LinEq1:  Iter=  4 NonCon=     1 RMS=5.08D-08 Max=2.17D-06 NDo=     1
 LinEq1:  Iter=  5 NonCon=     1 RMS=3.35D-08 Max=8.38D-07 NDo=     1
 LinEq1:  Iter=  6 NonCon=     1 RMS=1.90D-08 Max=5.44D-07 NDo=     1
[...]
  Beta virt. eigenvalues --    4.11609   4.15662   4.18674   4.23718   4.27774
  Beta virt. eigenvalues --    4.32546   4.34520   4.36134   4.40227   4.44134
  Beta virt. eigenvalues --    4.49922   4.52419   4.55575   4.57998   4.59964
  Beta virt. eigenvalues --    4.60349   4.64237   4.66636   4.70796   4.74607
  Beta virt. eigenvalues --    4.76161   4.81436   4.85558   4.88508   4.92765
  Beta virt. eigenvalues --    4.96031   4.97900   5.03350   5.21945   5.47648
  Beta virt. eigenvalues --    5.50528   5.61371   5.64503   5.65012   5.67384
  Beta virt. eigenvalues --    5.70390   5.71272   5.74209   5.76104   5.82382
  Beta virt. eigenvalues --    5.85215   5.88147   5.95448   5.99522   6.02325
  Beta virt. eigenvalues --    6.04806   6.08226   6.12239   6.27495   6.33053
  Beta virt. eigenvalues --    6.44320   6.48713   7.01317   7.17993   7.39628
  Beta virt. eigenvalues --    7.42481   7.54050   7.74908   7.75469   7.78910
  Beta virt. eigenvalues --    7.82975   7.84852   8.09346   8.14607   8.23635
  Beta virt. eigenvalues --   25.39885  25.51570  25.58833  51.67089  51.75687
          Condensed to atoms (all electrons):
               1          2          3          4          5          6
     1  C    4.863288   0.452610   0.401518   0.371788   0.249676  -0.000437
     2  H    0.452610   0.565172  -0.031500  -0.031493  -0.066571   0.000006
     3  H    0.401518  -0.031500   0.626121  -0.033663  -0.017257  -0.003447
     4  H    0.371788  -0.031493  -0.033663   0.658140   0.010451  -0.010588
     5  C    0.249676  -0.066571  -0.017257   0.010451   4.844144   0.423533
     6  H   -0.000437   0.000006  -0.003447  -0.010588   0.423533   0.643882
     7  C    0.026007  -0.008324   0.004609  -0.002874   0.272763  -0.048871
     8  H   -0.006181   0.002821  -0.004679   0.000745  -0.038522  -0.004220
     9  H   -0.003548   0.000379   0.000708  -0.000602  -0.049912  -0.002539
    10  O   -0.069917  -0.002582   0.004879  -0.007869   0.287636  -0.046506
    11  H   -0.024354  -0.002345   0.001419   0.000797   0.020365  -0.000263
    12  O   -0.028436   0.006833  -0.004885   0.001626  -0.048520   0.007885
               7          8          9         10         11         12
     1  C    0.026007  -0.006181  -0.003548  -0.069917  -0.024354  -0.028436
     2  H   -0.008324   0.002821   0.000379  -0.002582  -0.002345   0.006833
     3  H    0.004609  -0.004679   0.000708   0.004879   0.001419  -0.004885
     4  H   -0.002874   0.000745  -0.000602  -0.007869   0.000797   0.001626
     5  C    0.272763  -0.038522  -0.049912   0.287636   0.020365  -0.048520
     6  H   -0.048871  -0.004220  -0.002539  -0.046506  -0.000263   0.007885
     7  C    4.934515   0.435196   0.434457  -0.156673  -0.006096   0.194564
     8  H    0.435196   0.600601  -0.030382   0.012778  -0.001606  -0.049230
     9  H    0.434457  -0.030382   0.592257  -0.007622   0.000963  -0.036277
    10  O   -0.156673   0.012778  -0.007622   8.082498   0.246464   0.011564
    11  H   -0.006096  -0.001606   0.000963   0.246464   0.503091  -0.001727
    12  O    0.194564  -0.049230  -0.036277   0.011564  -0.001727   8.097240
          Atomic-Atomic Spin Densities.
               1          2          3          4          5          6
     1  C    0.014134   0.000307  -0.001605  -0.001050  -0.015282   0.003772
     2  H    0.000307   0.000463   0.000113  -0.000106   0.000027  -0.000219
     3  H   -0.001605   0.000113   0.000723  -0.000102   0.001833  -0.000260
     4  H   -0.001050  -0.000106  -0.000102   0.000498   0.001421  -0.000131
     5  C   -0.015282   0.000027   0.001833   0.001421   0.012395  -0.002832
     6  H    0.003772  -0.000219  -0.000260  -0.000131  -0.002832  -0.002915
     7  C    0.000444   0.000339  -0.000973  -0.000576   0.017225   0.001888
     8  H   -0.015484   0.000194   0.000729   0.000666   0.024288  -0.003195
     9  H    0.008609  -0.000317  -0.000360  -0.000202   0.002978   0.001866
    10  O   -0.003552   0.000156  -0.000007   0.000251  -0.000543  -0.000552
    11  H   -0.000174   0.000067   0.000037  -0.000044  -0.000423   0.000199
    12  O    0.014687  -0.001915  -0.000424  -0.000900  -0.042359  -0.000207
               7          8          9         10         11         12
     1  C    0.000444  -0.015484   0.008609  -0.003552  -0.000174   0.014687
     2  H    0.000339   0.000194  -0.000317   0.000156   0.000067  -0.001915
     3  H   -0.000973   0.000729  -0.000360  -0.000007   0.000037  -0.000424
     4  H   -0.000576   0.000666  -0.000202   0.000251  -0.000044  -0.000900
     5  C    0.017225   0.024288   0.002978  -0.000543  -0.000423  -0.042359
     6  H    0.001888  -0.003195   0.001866  -0.000552   0.000199  -0.000207
     7  C   -0.136187  -0.002017   0.002478  -0.001127   0.000515   0.008844
     8  H   -0.002017   0.120261  -0.030352   0.002322   0.000338  -0.022419
     9  H    0.002478  -0.030352   0.084096  -0.003806  -0.000241  -0.012882
    10  O   -0.001127   0.002322  -0.003806   0.005532  -0.000196   0.002463
    11  H    0.000515   0.000338  -0.000241  -0.000196  -0.000203   0.000482
    12  O    0.008844  -0.022419  -0.012882   0.002463   0.000482   1.035801
 Mulliken charges and spin densities:
               1          2
     1  C   -0.232016   0.004806
     2  H    0.114992  -0.000891
     3  H    0.056177  -0.000296
     4  H    0.043542  -0.000275
     5  C    0.112214  -0.001272
     6  H    0.041563  -0.002588
     7  C   -0.079272  -0.109147
     8  H    0.082678   0.075331
     9  H    0.102118   0.051867
    10  O   -0.354650   0.000941
    11  H    0.263291   0.000356
    12  O   -0.150639   0.981170
 Sum of Mulliken charges =   0.00000   1.00000
 Mulliken charges and spin densities with hydrogens summed into heavy atoms:
               1          2
     1  C   -0.017305   0.003344
     5  C    0.153778  -0.003861
     7  C    0.105525   0.018050
    10  O   -0.091359   0.001296
    12  O   -0.150639   0.981170
 Electronic spatial extent (au):  <R**2>=            432.7593
 Charge=              0.0000 electrons
 Dipole moment (field-independent basis, Debye):
    X=             -1.9377    Y=              0.8932    Z=              2.0951  Tot=              2.9904
 Quadrupole moment (field-independent basis, Debye-Ang):
   XX=            -29.4971   YY=            -32.7014   ZZ=            -31.2937
   XY=             -0.2279   XZ=              2.9871   YZ=             -0.0898
 Traceless Quadrupole moment (field-independent basis, Debye-Ang):
   XX=              1.6670   YY=             -1.5373   ZZ=             -0.1297
   XY=             -0.2279   XZ=              2.9871   YZ=             -0.0898
 Octapole moment (field-independent basis, Debye-Ang**2):
  XXX=            -15.5085  YYY=              0.0289  ZZZ=             -1.3173  XYY=              2.7421
  XXY=             -7.1948  XXZ=              1.0806  XZZ=              0.1516  YZZ=             -1.0835
  YYZ=              0.2482  XYZ=              0.0167
 Hexadecapole moment (field-independent basis, Debye-Ang**3):
 XXXX=           -267.7371 YYYY=           -182.3000 ZZZZ=            -88.9355 XXXY=             16.5553
 XXXZ=             12.0216 YYYX=              5.4812 YYYZ=              1.8822 ZZZX=             -0.7216
 ZZZY=              0.8910 XXYY=            -68.9498 XXZZ=            -61.0406 YYZZ=            -43.5316
 XXYZ=              4.6034 YYXZ=              1.4232 ZZXY=              2.9753
 N-N= 1.856016171463D+02 E-N=-1.000477702508D+03  KE= 2.672094777108D+02
 1\1\GINC-SHAS0558\SP\UMP2-FC\CBSB3\C3H7O2(2)\JASM3285\08-Feb-2018\0\\#
 N Geom=AllCheck Guess=TCheck SCRF=Check MP2/CBSB3 CBSExtrap=(NMin=10,M
 inPop)\\Title Card Required\\0,2\C,0,-3.1521100201,-1.3836801917,0.061
 9807106\H,0,-2.8452218141,-2.4289629482,0.1213171693\H,0,-2.8415806025
 ,-0.9806222651,-0.9068380343\H,0,-4.2443885393,-1.3325780574,0.1067561
 843\C,0,-2.5288812932,-0.600849572,1.2128956619\H,0,-2.7941419879,0.46
 52170793,1.1259086923\C,0,-0.9995186712,-0.6932523069,1.2223701793\H,0
 ,-0.5681191471,-0.0728781154,0.4110170778\H,0,-0.6047943667,-0.2413751
 732,2.150703262\O,0,-2.9476959785,-1.1026620063,2.4836077051\H,0,-3.90
 89145136,-1.1391340038,2.4899565228\O,0,-0.4741004057,-1.9442421393,1.
 0783693089\\Version=ES64L-G16RevA.03\State=2-A\HF=-267.4448245\MP2=-26
 8.3804525\E2(CBS)=-1.0316742\CBS-Int=-1.0010092\OIii=8.280058\PUHF=-26
 7.4487931\PMP2-0=-268.3828748\S2=0.759983\S2-1=0.752167\S2A=0.750078\R
 MSD=3.277e-09\PG=C01 [X(C3H7O2)]\\@


 The juvenile sea squirt wanders through the sea searching
 for a suitable rock or hunk of coral to cling to and make
 its home for life.  For this task it has a rudimentary
 nervous system.  When it finds its spot and takes root, it
 doesn't need its brain any more so it eats it.
 It's rather like getting tenure.

                               -- source unknown
 Diagonal vibrational polarizability:
        0.0000000       0.0000000       0.0000000

 Complete Basis Set (CBS) Extrapolation:
 M. R. Nyden and G. A. Petersson, JCP 75, 1843 (1981)
 G. A. Petersson and M. A. Al-Laham, JCP 94, 6081 (1991)
 G. A. Petersson, T. Tensfeldt, and J. A. Montgomery, JCP 94, 6091 (1991)
 J. A. Montgomery, J. W. Ochterski, and G. A. Petersson, JCP 101, 5900 (1994)

 Temperature=               298.150000 Pressure=                       1.000000
 E(ZPE)=                      0.097109 E(Thermal)=                     0.103401
 E(SCF)=                   -267.444824 DE(MP2)=                       -0.935628
 DE(CBS)=                    -0.096046 DE(MP34)=                      -0.053736
 DE(CCSD)=                   -0.023491 DE(Int)=                        0.030665
 DE(Empirical)=              -0.048037
 CBS-QB3 (0 K)=            -268.473988 CBS-QB3 Energy=              -268.467696
 CBS-QB3 Enthalpy=         -268.466752 CBS-QB3 Free Energy=         -268.503775
 1\1\GINC-SHAS0558\Mixed\CBS-QB3\CBS-QB3\C3H7O2(2)\JASM3285\08-Feb-2018
 \0\\# opt=(calcfc,tight,noeigentest) freq cbs-qb3 scf=qc geom=connecti
 vity ccsd=maxcyc=1000 optcyc=100\\Title Card Required\\0,2\C,0,-3.1521
 100201,-1.3836801917,0.0619807106\H,0,-2.8452218141,-2.4289629482,0.12
 13171693\H,0,-2.8415806025,-0.9806222651,-0.9068380343\H,0,-4.24438853
 93,-1.3325780574,0.1067561843\C,0,-2.5288812932,-0.600849572,1.2128956
 619\H,0,-2.7941419879,0.4652170793,1.1259086923\C,0,-0.9995186712,-0.6
 932523069,1.2223701793\H,0,-0.5681191471,-0.0728781154,0.4110170778\H,
 0,-0.6047943667,-0.2413751732,2.150703262\O,0,-2.9476959785,-1.1026620
 063,2.4836077051\H,0,-3.9089145136,-1.1391340038,2.4899565228\O,0,-0.4
 741004057,-1.9442421393,1.0783693089\\Version=ES64L-G16RevA.03\State=2
 -A\HF/CbsB3=-267.4448245\E2(CBS)/CbsB3=-1.0316742\CBS-Int/CbsB3=0.0306
 651\OIii/CbsB3=8.280058\MP2/CbsB4=-268.1443351\MP4(SDQ)/CbsB4=-268.198
 0713\MP4(SDQ)/6-31+G(d')=-268.1333078\QCISD(T)/6-31+G(d')=-268.1567984
 \CBSQB3=-268.4739882\FreqCoord=-5.9566246526,-2.6147766064,0.117126568
 ,-5.3766899923,-4.5900747388,0.2292562242,-5.3698090997,-1.8531075127,
 -1.7136755242,-8.0207319055,-2.5182075681,0.2017399504,-4.7788930458,-
 1.1354411331,2.2920406187,-5.2801631102,0.8791328683,2.1276590697,-1.8
 88816545,-1.3100569952,2.3099448616,-1.0735895941,-0.1377196786,0.7767
 097096,-1.1428957147,-0.4561329706,4.0642401404,-5.5703380979,-2.08372
 91998,4.6933383636,-7.386777875,-2.1526512864,4.7053358903,-0.89591992
 24,-3.6740851631,2.037822655\PG=C01 [X(C3H7O2)]\NImag=0\\0.55336185,-0
 .02312535,0.54417669,-0.03056912,-0.04517639,0.51024973,-0.06914390,0.
 07453236,-0.00423461,0.07173069,0.07239463,-0.29049871,0.01522661,-0.0
 7903921,0.31706802,-0.00369147,0.01766258,-0.04850344,0.00617498,-0.01
 505765,0.04992182,-0.06818371,-0.02901885,0.06578362,0.00226425,0.0027
 1397,-0.00903345,0.07049452,-0.02893594,-0.08408019,0.08520849,-0.0104
 2023,-0.00920669,0.02714828,0.03227182,0.08595001,0.06450766,0.0838013
 9,-0.24780651,-0.00005174,0.00022128,-0.00053446,-0.07168857,-0.093133
 71,0.27093677,-0.30279925,0.01448608,0.01280302,-0.00814366,-0.0000110
 9,0.00064533,-0.00859976,0.00057810,0.00056331,0.33042925,0.01499652,-
 0.04764751,-0.00104291,0.03072562,0.00066460,-0.00246683,-0.01221387,-
 0.00021907,0.00007231,-0.01423462,0.04769145,0.01398426,-0.00025271,-0
 .04725873,-0.00217384,0.00003412,-0.00110862,0.02900124,-0.00230191,-0
 .00065667,-0.01286340,0.00290109,0.05021008,-0.10153540,-0.02474573,-0
 .02652791,0.00483339,0.00274271,0.00694984,0.00328520,0.00756455,0.009
 65798,-0.01484021,-0.02082416,-0.02737925,0.50082329,-0.02474626,-0.11
 867848,-0.04195642,-0.01531588,-0.02056379,-0.02697536,0.00741635,0.00
 703428,0.01329869,0.00094066,0.00002426,0.00187229,-0.01806868,0.57711
 425,-0.03791945,-0.04841179,-0.12385620,0.00180007,0.00184602,0.000279
 94,-0.00973974,-0.01334014,-0.01770033,0.00271436,0.00094198,-0.000622
 96,0.00855802,0.00475957,0.43549702,0.00442435,-0.01560820,-0.00134900
 ,-0.00089249,-0.00176918,-0.00261892,0.00035323,0.00056074,0.00013310,
 0.00076142,0.00020082,0.00095715,-0.07221210,0.05954057,-0.00532987,0.
 07318874,0.00552048,-0.01636844,-0.00122535,-0.00157610,-0.00051808,-0
 .00266056,0.00007382,0.00013195,-0.00090648,-0.00052997,0.00052083,0.0
 0064368,0.05971586,-0.26414119,0.00469621,-0.06167968,0.29194733,0.006
 06242,-0.02536059,0.00155414,-0.00272542,-0.00297077,-0.00358524,0.000
 47775,0.00084963,0.00085417,-0.00021743,0.00094597,0.00074827,-0.00243
 171,0.00536388,-0.04596534,0.00173255,-0.01616655,0.06317840,-0.019583
 45,-0.00415948,-0.00954080,0.00050244,0.00200928,0.00106794,0.00033084
 ,-0.00016808,0.00114931,0.00101143,0.00045890,-0.00069858,-0.16960565,
 -0.00905542,0.00293748,-0.00443333,-0.00075883,-0.00097545,0.48095526,
 -0.01826048,0.00267099,0.00099907,-0.00034257,-0.00094738,0.00021584,0
 .00038296,0.00035702,0.00024846,-0.00166957,-0.00213238,-0.00287344,-0
 .00664216,-0.07624847,-0.00829112,0.03088037,-0.00223986,-0.00008017,0
 .01224366,0.42879471,-0.02652852,0.00323323,-0.00091161,0.00042897,-0.
 00230309,0.00303513,-0.00034928,0.00115998,-0.00001919,-0.00179090,-0.
 00432029,-0.00432248,-0.00816026,-0.00580513,-0.04372171,0.00105954,-0
 .00019263,-0.00043562,-0.01452182,0.00846166,0.40888272,0.00093723,0.0
 0063466,0.00039883,-0.00011505,-0.00030106,0.00002595,-0.00034768,-0.0
 0010663,-0.00078601,0.00018455,0.00005314,-0.00021666,-0.00678106,-0.0
 1714416,0.02335960,0.00099781,0.00072388,0.00000119,-0.08415996,-0.035
 51102,0.06352798,0.08589445,-0.00061044,-0.00054804,0.00096505,0.00006
 791,0.00040566,-0.00045539,-0.00003186,0.00004567,-0.00021624,-0.00012
 247,0.00004460,-0.00023379,-0.00178692,0.00107931,-0.00628332,-0.00009
 529,0.00021186,-0.00021414,-0.04940752,-0.09101467,0.11988692,0.050126
 06,0.12163827,-0.00050998,-0.00035251,0.00039156,0.00002623,0.00023969
 ,-0.00038389,-0.00010849,-0.00017707,0.00023139,0.00004824,0.00013045,
 0.00007873,-0.00433830,-0.00045930,-0.00608894,0.00062921,-0.00043395,
 0.00031852,0.07315155,0.08797022,-0.14513939,-0.07409034,-0.10991603,0
 .17694242,-0.00671948,0.00109468,0.00242640,-0.00002056,0.00007747,-0.
 00021467,0.00028884,0.00024969,0.00020211,-0.00096486,-0.00126719,-0.0
 0154603,-0.01297549,-0.01292896,-0.03270670,0.00086700,0.00039559,0.00
 033508,-0.08101867,-0.01981163,-0.05949774,0.00410062,-0.00059065,0.00
 736182,0.08261245,0.00104269,0.00113469,-0.00031500,0.00023641,-0.0004
 9682,0.00048147,-0.00013082,0.00003472,-0.00031199,0.00028875,-0.00001
 630,-0.00006520,0.00020904,0.00185830,0.00622020,-0.00032066,0.0001159
 0,0.00018421,-0.03521832,-0.06124170,-0.09820830,0.00284872,0.01178546
 ,0.01712203,0.03264494,0.08615005,-0.00034576,0.00058446,0.00074686,0.
 00010983,0.00013976,-0.00010791,0.00013890,0.00002837,0.00020728,-0.00
 011252,-0.00020323,0.00013937,0.00066579,0.00031752,-0.00450897,-0.000
 80060,0.00030085,0.00002961,-0.07737466,-0.07200038,-0.19847429,-0.007
 22541,-0.00943171,-0.02251589,0.07878455,0.09230541,0.22858750,0.00430
 026,0.00472127,-0.00829679,-0.00007575,0.00023995,0.00058908,0.0004624
 2,-0.00149205,-0.00220576,0.00277356,0.00072017,-0.00009464,-0.0999528
 0,-0.01956282,0.05051435,0.00556024,-0.00336873,-0.00140960,-0.0238897
 5,-0.01641677,0.03390260,-0.00826760,0.00203087,0.00256000,0.00393105,
 -0.00180372,0.00118829,0.62810065,0.00257632,0.00980325,-0.01033188,0.
 00078815,0.00305613,0.00171878,-0.00119229,0.00017353,-0.00360876,0.00
 068634,-0.00024945,0.00004393,-0.00472385,-0.08660945,0.05136359,-0.01
 373172,-0.00983233,0.03790921,-0.00248352,0.00080923,0.00605307,-0.000
 33164,-0.00026785,-0.00030429,0.00020011,0.00005081,0.00012960,0.04254
 453,0.08871956,0.01484860,0.01633989,-0.04692799,0.00087602,0.00044185
 ,0.00271466,-0.00414642,-0.00514335,-0.00652386,0.00004471,0.00196945,
 0.00325769,0.00138184,0.04651564,-0.17681687,0.00665660,0.01578755,-0.
 01879508,0.01048114,0.00486335,-0.01103538,0.00025297,-0.00012349,0.00
 059573,-0.00001901,-0.00029963,0.00121771,-0.04403886,-0.09279189,0.28
 888294,0.00319781,0.00125756,-0.00174797,-0.00019836,-0.00000553,0.000
 25960,-0.00017524,-0.00047329,-0.00094168,-0.00011365,0.00060821,0.000
 59547,-0.01354703,0.00108832,-0.00433881,0.00082409,0.00038803,-0.0013
 5367,-0.00000735,-0.00234762,0.00330428,-0.00086261,0.00049285,0.00026
 636,0.00052126,0.00014329,0.00012955,-0.51691305,-0.02329179,0.0135420
 8,0.52659319,0.00127130,0.00072835,-0.00019946,0.00051434,-0.00039168,
 -0.00021932,-0.00024531,-0.00035504,0.00013463,-0.00004715,0.00059886,
 0.00006514,-0.01669955,-0.00252989,0.00297241,-0.00109129,-0.00002878,
 -0.00026425,-0.00085025,-0.00022215,-0.00023312,-0.00041586,0.00088587
 ,0.00052449,0.00032075,-0.00051596,0.00001425,-0.00536136,-0.00775245,
 0.01326050,0.02255452,0.01007719,0.00190492,-0.00069313,0.00158467,-0.
 00005587,-0.00012445,-0.00018142,-0.00059065,0.00024083,0.00069527,-0.
 00152330,-0.00010938,-0.00090500,0.04284534,0.00251614,-0.00594626,-0.
 00041617,0.00034980,0.00065768,0.00126985,0.00314008,-0.00510707,0.001
 90189,-0.00018962,-0.00001819,0.00004433,0.00050166,-0.00005785,-0.035
 38923,0.01188117,-0.03812950,-0.00955725,-0.01717073,0.04757534,0.0017
 4369,-0.00006899,0.00085433,-0.00074100,0.00094806,-0.00015420,-0.0001
 7290,0.00037133,-0.00053972,0.00030118,0.00077646,0.00043428,-0.017492
 13,0.04783628,0.00015069,-0.00943897,0.00109567,0.00050428,-0.10010181
 ,0.05749483,0.00862514,0.00841930,-0.00007255,-0.00499630,0.00937785,0
 .00005969,0.00484205,0.00397076,-0.00104063,0.00012034,0.00068096,0.00
 004985,-0.00043386,0.10345307,-0.00212347,-0.00069261,-0.00215180,-0.0
 0017079,0.00142874,0.00060816,-0.00002590,0.00013381,0.00040043,-0.000
 36504,0.00072012,0.00016680,0.02325888,-0.01833912,0.00352639,0.003113
 51,0.00020081,-0.00019642,0.08738957,-0.19858534,-0.02773228,-0.000576
 07,-0.04426614,0.00565628,-0.00038480,-0.03885913,-0.01218490,-0.00225
 136,0.00209903,-0.00081987,-0.00041453,-0.00049432,-0.00034237,-0.1074
 4999,0.29665415,-0.00174355,-0.00137442,0.00073754,-0.00017462,0.00230
 665,-0.00154656,0.00025509,-0.00053939,0.00031614,-0.00031142,0.001181
 38,0.00044033,-0.00122140,0.00055250,-0.01054937,-0.00065358,-0.000192
 58,0.00144048,0.01305405,-0.02265356,-0.00275112,-0.00714998,0.0062117
 5,-0.00441205,0.00482986,-0.01761485,-0.00526342,0.00268055,-0.0020625
 3,0.00155995,-0.00015798,0.00111545,-0.00016767,-0.00940701,0.03306959
 ,0.02019576\\0.00000036,0.00000022,-0.00000100,0.00000032,-0.00000048,
 0.00000058,0.00000046,-0.00000044,-0.00000199,0.00000022,-0.00000095,0
 .00000006,-0.00000222,0.00000094,-0.00000124,0.00000072,-0.00000072,-0
 .00000057,-0.00000027,-0.00000042,-0.00000035,-0.00000107,0.00000045,0
 .00000016,-0.00000002,0.00000129,0.00000153,0.00000187,0.00000051,0.00
 000163,-0.00000073,-0.00000005,0.00000056,0.00000037,-0.00000036,0.000
 00062\\\@
 Job cpu time:       0 days  0 hours  6 minutes 51.2 seconds.
 Elapsed time:       0 days  0 hours  7 minutes 59.3 seconds.
 File lengths (MBytes):  RWF=   2768 Int=      0 D2E=      0 Chk=     16 Scr=     16
 Normal termination of Gaussian 16 at Thu Feb  8 14:32:30 2018.
