 Entering Gaussian System, Link 0=g16
 Input=ts.com
 Output=ts.log
 Initial command:
 /projects/jasm3285/g16/l1.exe "/gpfs/summit/scratch/jasm3285/Gau-58467.inp" -scrdir="/gpfs/summit/scratch/jasm3285/"
 Entering Link 1 = /projects/jasm3285/g16/l1.exe PID=     58468.
  
 Copyright (c) 1988,1990,1992,1993,1995,1998,2003,2009,2016,
            Gaussian, Inc.  All Rights Reserved.
  
 This is part of the Gaussian(R) 16 program.  It is based on
 the Gaussian(R) 09 system (copyright 2009, Gaussian, Inc.),
 the Gaussian(R) 03 system (copyright 2003, Gaussian, Inc.),
 the Gaussian(R) 98 system (copyright 1998, Gaussian, Inc.),
 the Gaussian(R) 94 system (copyright 1995, Gaussian, Inc.),
 the Gaussian 92(TM) system (copyright 1992, Gaussian, Inc.),
 the Gaussian 90(TM) system (copyright 1990, Gaussian, Inc.),
 the Gaussian 88(TM) system (copyright 1988, Gaussian, Inc.),
 the Gaussian 86(TM) system (copyright 1986, Carnegie Mellon
 University), and the Gaussian 82(TM) system (copyright 1983,
 Carnegie Mellon University). Gaussian is a federally registered
 trademark of Gaussian, Inc.
  
 This software contains proprietary and confidential information,
 including trade secrets, belonging to Gaussian, Inc.
  
 This software is provided under written license and may be
 used, copied, transmitted, or stored only in accord with that
 written license.
  
 The following legend is applicable only to US Government
 contracts under FAR:
  
                    RESTRICTED RIGHTS LEGEND
  
 Use, reproduction and disclosure by the US Government is
 subject to restrictions as set forth in subparagraphs (a)
 and (c) of the Commercial Computer Software - Restricted
 Rights clause in FAR 52.227-19.
  
 Gaussian, Inc.
 340 Quinnipiac St., Bldg. 40, Wallingford CT 06492
  
  
 ---------------------------------------------------------------
 Warning -- This program may not be used in any manner that
 competes with the business of Gaussian, Inc. or will provide
 assistance to any competitor of Gaussian, Inc.  The licensee
 of this program is prohibited from giving any competitor of
 Gaussian, Inc. access to this program.  By using this program,
 the user acknowledges that Gaussian, Inc. is engaged in the
 business of creating and licensing software in the field of
 computational chemistry and represents and warrants to the
 licensee that it is not a competitor of Gaussian, Inc. and that
 it will not use this program in any manner prohibited above.
 ---------------------------------------------------------------
  

 Cite this work as:
 Gaussian 16, Revision A.03,
 M. J. Frisch, G. W. Trucks, H. B. Schlegel, G. E. Scuseria, 
 M. A. Robb, J. R. Cheeseman, G. Scalmani, V. Barone, 
 G. A. Petersson, H. Nakatsuji, X. Li, M. Caricato, A. V. Marenich, 
 J. Bloino, B. G. Janesko, R. Gomperts, B. Mennucci, H. P. Hratchian, 
 J. V. Ortiz, A. F. Izmaylov, J. L. Sonnenberg, D. Williams-Young, 
 F. Ding, F. Lipparini, F. Egidi, J. Goings, B. Peng, A. Petrone, 
 T. Henderson, D. Ranasinghe, V. G. Zakrzewski, J. Gao, N. Rega, 
 G. Zheng, W. Liang, M. Hada, M. Ehara, K. Toyota, R. Fukuda, 
 J. Hasegawa, M. Ishida, T. Nakajima, Y. Honda, O. Kitao, H. Nakai, 
 T. Vreven, K. Throssell, J. A. Montgomery, Jr., J. E. Peralta, 
 F. Ogliaro, M. J. Bearpark, J. J. Heyd, E. N. Brothers, K. N. Kudin, 
 V. N. Staroverov, T. A. Keith, R. Kobayashi, J. Normand, 
 K. Raghavachari, A. P. Rendell, J. C. Burant, S. S. Iyengar, 
 J. Tomasi, M. Cossi, J. M. Millam, M. Klene, C. Adamo, R. Cammi, 
 J. W. Ochterski, R. L. Martin, K. Morokuma, O. Farkas, 
 J. B. Foresman, and D. J. Fox, Gaussian, Inc., Wallingford CT, 2016.
 
 ******************************************
 Gaussian 16:  ES64L-G16RevA.03 25-Dec-2016
                 8-Feb-2018 
 ******************************************
 ----------------------------------------------------------------------
 # opt=(calcfc,tight,ts,noeigentest) freq cbs-qb3 scf=qc geom=connectiv
 ity ccsd=maxcyc=1000 optcyc=100
 ----------------------------------------------------------------------
 1/5=1,6=100,7=10,10=4,11=1,18=20,26=3,38=1,57=2/1,3;
 2/9=110,12=2,17=6,18=5,40=1/2;
 3/5=4,6=6,7=700,11=2,25=1,30=1,71=2,74=-5,140=1/1,2,3;
 4//1;
 5/5=2,8=3,38=5/8;
 8/6=4,10=90,11=11/1;
 11/6=1,8=1,9=11,15=111,16=1/1,2,10;
 10/6=1,13=1/2;
 6/7=2,8=2,9=2,10=2,28=1/1;
 7/10=1,18=20,25=1/1,2,3,16;
 1/5=1,6=100,7=10,10=4,11=1,18=20,26=3/3(2);
 2/9=110/2;
 99//99;
 2/9=110/2;
 3/5=4,6=6,7=700,11=2,25=1,30=1,71=1,74=-5/1,2,3;
 4/5=5,16=3,69=1/1;
 5/5=2,8=3,38=5/8;
 7//1,2,3,16;
 1/5=1,6=100,7=10,11=1,18=20,26=3/3(-5);
 2/9=110/2;
 6/7=2,8=2,9=2,10=2,19=2,28=1/1;
 99/9=1/99;
 -------------------
 Title Card Required
 -------------------
 Symbolic Z-matrix:
 Charge =  0 Multiplicity = 2
 C                    -4.14916   2.06178  -0.08702 
 H                    -5.17561   2.18738  -0.44463 
 H                    -3.93782   2.84784   0.64019 
 H                    -3.4659    2.18357  -0.9309 
 C                    -3.96387   0.68847   0.54139 
 H                    -4.64459   0.58396   1.41015 
 C                    -4.30011  -0.56636  -0.37115 
 H                    -5.33109  -0.93527  -0.29966 
 H                    -4.13395  -0.2364   -1.41408 
 O                    -2.67601   0.44346   0.94779 
 O                    -3.37967  -1.50954  -0.00184 
 H                    -2.69439  -0.70998   0.58569 
 
 Add virtual bond connecting atoms H12        and O10        Dist= 2.28D+00.
 Add virtual bond connecting atoms H12        and O11        Dist= 2.28D+00.

 GradGradGradGradGradGradGradGradGradGradGradGradGradGradGradGradGradGrad
 Berny optimization.
 Initialization pass.
                           ----------------------------
                           !    Initial Parameters    !
                           ! (Angstroms and Degrees)  !
 --------------------------                            --------------------------
 ! Name  Definition              Value          Derivative Info.                !
 --------------------------------------------------------------------------------
 ! R1    R(1,2)                  1.0942         calculate D2E/DX2 analytically  !
 ! R2    R(1,3)                  1.0915         calculate D2E/DX2 analytically  !
 ! R3    R(1,4)                  1.0926         calculate D2E/DX2 analytically  !
 ! R4    R(1,5)                  1.5216         calculate D2E/DX2 analytically  !
 ! R5    R(5,6)                  1.1086         calculate D2E/DX2 analytically  !
 ! R6    R(5,7)                  1.5876         calculate D2E/DX2 analytically  !
 ! R7    R(5,10)                 1.3725         calculate D2E/DX2 analytically  !
 ! R8    R(7,8)                  1.0973         calculate D2E/DX2 analytically  !
 ! R9    R(7,9)                  1.1064         calculate D2E/DX2 analytically  !
 ! R10   R(7,11)                 1.3686         calculate D2E/DX2 analytically  !
 ! R11   R(10,12)                1.2091         calculate D2E/DX2 analytically  !
 ! R12   R(11,12)                1.2059         calculate D2E/DX2 analytically  !
 ! A1    A(2,1,3)              108.4641         calculate D2E/DX2 analytically  !
 ! A2    A(2,1,4)              108.7479         calculate D2E/DX2 analytically  !
 ! A3    A(2,1,5)              110.6593         calculate D2E/DX2 analytically  !
 ! A4    A(3,1,4)              108.2538         calculate D2E/DX2 analytically  !
 ! A5    A(3,1,5)              110.5639         calculate D2E/DX2 analytically  !
 ! A6    A(4,1,5)              110.086          calculate D2E/DX2 analytically  !
 ! A7    A(1,5,6)              109.509          calculate D2E/DX2 analytically  !
 ! A8    A(1,5,7)              116.7572         calculate D2E/DX2 analytically  !
 ! A9    A(1,5,10)             113.4324         calculate D2E/DX2 analytically  !
 ! A10   A(6,5,7)              104.2337         calculate D2E/DX2 analytically  !
 ! A11   A(6,5,10)             109.104          calculate D2E/DX2 analytically  !
 ! A12   A(7,5,10)             103.1696         calculate D2E/DX2 analytically  !
 ! A13   A(5,7,8)              115.2944         calculate D2E/DX2 analytically  !
 ! A14   A(5,7,9)              105.9195         calculate D2E/DX2 analytically  !
 ! A15   A(5,7,11)             104.3097         calculate D2E/DX2 analytically  !
 ! A16   A(8,7,9)              107.6233         calculate D2E/DX2 analytically  !
 ! A17   A(8,7,11)             112.4946         calculate D2E/DX2 analytically  !
 ! A18   A(9,7,11)             111.0312         calculate D2E/DX2 analytically  !
 ! A19   A(5,10,12)             93.8621         calculate D2E/DX2 analytically  !
 ! A20   A(7,11,12)             93.2513         calculate D2E/DX2 analytically  !
 ! A21   A(10,12,11)           141.9159         calculate D2E/DX2 analytically  !
 ! D1    D(2,1,5,6)            -61.0518         calculate D2E/DX2 analytically  !
 ! D2    D(2,1,5,7)             57.0325         calculate D2E/DX2 analytically  !
 ! D3    D(2,1,5,10)           176.8088         calculate D2E/DX2 analytically  !
 ! D4    D(3,1,5,6)             59.1448         calculate D2E/DX2 analytically  !
 ! D5    D(3,1,5,7)            177.229          calculate D2E/DX2 analytically  !
 ! D6    D(3,1,5,10)           -62.9947         calculate D2E/DX2 analytically  !
 ! D7    D(4,1,5,6)            178.7086         calculate D2E/DX2 analytically  !
 ! D8    D(4,1,5,7)            -63.2072         calculate D2E/DX2 analytically  !
 ! D9    D(4,1,5,10)            56.5691         calculate D2E/DX2 analytically  !
 ! D10   D(1,5,7,8)            -91.6726         calculate D2E/DX2 analytically  !
 ! D11   D(1,5,7,9)             27.2095         calculate D2E/DX2 analytically  !
 ! D12   D(1,5,7,11)           144.4607         calculate D2E/DX2 analytically  !
 ! D13   D(6,5,7,8)             29.2409         calculate D2E/DX2 analytically  !
 ! D14   D(6,5,7,9)            148.1231         calculate D2E/DX2 analytically  !
 ! D15   D(6,5,7,11)           -94.6257         calculate D2E/DX2 analytically  !
 ! D16   D(10,5,7,8)           143.2025         calculate D2E/DX2 analytically  !
 ! D17   D(10,5,7,9)           -97.9153         calculate D2E/DX2 analytically  !
 ! D18   D(10,5,7,11)           19.3358         calculate D2E/DX2 analytically  !
 ! D19   D(1,5,10,12)         -140.7285         calculate D2E/DX2 analytically  !
 ! D20   D(6,5,10,12)           96.9072         calculate D2E/DX2 analytically  !
 ! D21   D(7,5,10,12)          -13.475          calculate D2E/DX2 analytically  !
 ! D22   D(5,7,11,12)          -14.0365         calculate D2E/DX2 analytically  !
 ! D23   D(8,7,11,12)         -139.6907         calculate D2E/DX2 analytically  !
 ! D24   D(9,7,11,12)           99.6258         calculate D2E/DX2 analytically  !
 ! D25   D(5,10,12,11)           5.8939         calculate D2E/DX2 analytically  !
 ! D26   D(7,11,12,10)           7.1564         calculate D2E/DX2 analytically  !
 --------------------------------------------------------------------------------
 Trust Radius=3.00D-01 FncErr=1.00D-07 GrdErr=1.00D-06 EigMax=2.50D+02 EigMin=1.00D-04
 Number of steps in this run=    100 maximum allowed number of steps=    100.
 Search for a saddle point of order  1.
 GradGradGradGradGradGradGradGradGradGradGradGradGradGradGradGradGradGrad

                          Input orientation:                          
 ---------------------------------------------------------------------
 Center     Atomic      Atomic             Coordinates (Angstroms)
 Number     Number       Type             X           Y           Z
 ---------------------------------------------------------------------
      1          6           0       -4.149155    2.061785   -0.087018
      2          1           0       -5.175611    2.187385   -0.444631
      3          1           0       -3.937821    2.847843    0.640193
      4          1           0       -3.465899    2.183573   -0.930900
      5          6           0       -3.963870    0.688470    0.541387
      6          1           0       -4.644592    0.583957    1.410154
      7          6           0       -4.300105   -0.566360   -0.371147
      8          1           0       -5.331088   -0.935271   -0.299662
      9          1           0       -4.133950   -0.236395   -1.414080
     10          8           0       -2.676013    0.443462    0.947792
     11          8           0       -3.379670   -1.509540   -0.001835
     12          1           0       -2.694389   -0.709976    0.585687
 ---------------------------------------------------------------------
                    Distance matrix (angstroms):
                    1          2          3          4          5
     1  C    0.000000
     2  H    1.094200   0.000000
     3  H    1.091506   1.773463   0.000000
     4  H    1.092615   1.777523   1.769830   0.000000
     5  C    1.521584   2.165016   2.161789   2.156603   0.000000
     6  H    2.161240   2.508623   2.493501   3.070606   1.108630
     7  C    2.647765   2.890506   3.579223   2.927688   1.587568
     8  H    3.228704   3.129883   4.139622   3.688439   2.283240
     9  H    2.653857   2.810622   3.710934   2.556560   2.169828
    10  O    2.420733   3.350836   2.732732   2.679812   1.372505
    11  O    3.654275   4.133851   4.439653   3.809157   2.338296
    12  H    3.201802   3.951293   3.769240   3.356768   1.889232
                    6          7          8          9         10
     6  H    0.000000
     7  C    2.148240   0.000000
     8  H    2.388054   1.097329   0.000000
     9  H    2.984967   1.106433   1.778622   0.000000
    10  O    2.027023   2.323148   3.241368   2.857661   0.000000
    11  O    2.824265   1.368642   2.055850   2.045549   2.282792
    12  H    2.481391   1.874695   2.790481   2.509120   1.209081
                   11         12
    11  O    0.000000
    12  H    1.205859   0.000000
 Stoichiometry    C3H7O2(2)
 Framework group  C1[X(C3H7O2)]
 Deg. of freedom    30
 Full point group                 C1      NOp   1
 Largest Abelian subgroup         C1      NOp   1
 Largest concise Abelian subgroup C1      NOp   1
                         Standard orientation:                         
 ---------------------------------------------------------------------
 Center     Atomic      Atomic             Coordinates (Angstroms)
 Number     Number       Type             X           Y           Z
 ---------------------------------------------------------------------
      1          6           0       -1.837487   -0.340930   -0.176923
      2          1           0       -2.100835   -1.350951    0.151373
      3          1           0       -2.612699    0.346980    0.165442
      4          1           0       -1.819598   -0.320184   -1.269195
      5          6           0       -0.479561    0.066232    0.375774
      6          1           0       -0.515179    0.064478    1.483831
      7          6           0        0.747686   -0.877119    0.023180
      8          1           0        0.954073   -1.670358    0.752774
      9          1           0        0.490575   -1.363538   -0.936760
     10          8           0       -0.061021    1.299203   -0.058252
     11          8           0        1.802160   -0.017901   -0.128504
     12          1           0        1.090732    0.954058   -0.185600
 ---------------------------------------------------------------------
 Rotational constants (GHZ):           9.5441213           3.9849497           3.0772158
 Standard basis: 6-311G(2d,d,p) (5D, 7F)
 There are   137 symmetry adapted cartesian basis functions of A   symmetry.
 There are   132 symmetry adapted basis functions of A   symmetry.
   132 basis functions,   216 primitive gaussians,   137 cartesian basis functions
    21 alpha electrons       20 beta electrons
       nuclear repulsion energy       189.2323055528 Hartrees.
 NAtoms=   12 NActive=   12 NUniq=   12 SFac= 1.00D+00 NAtFMM=   60 NAOKFM=F Big=F
 Integral buffers will be    131072 words long.
 Raffenetti 2 integral format.
 Two-electron integral symmetry is turned on.
 One-electron integrals computed using PRISM.
 NBasis=   132 RedAO= T EigKep=  1.96D-03  NBF=   132
 NBsUse=   132 1.00D-06 EigRej= -1.00D+00 NBFU=   132
 ExpMin= 1.03D-01 ExpMax= 8.59D+03 ExpMxC= 1.30D+03 IAcc=3 IRadAn=         5 AccDes= 0.00D+00
 Harris functional with IExCor=  402 and IRadAn=       5 diagonalized for initial guess.
 HarFok:  IExCor=  402 AccDes= 0.00D+00 IRadAn=         5 IDoV= 1 UseB2=F ITyADJ=14
 ICtDFT=  3500011 ScaDFX=  1.000000  1.000000  1.000000  1.000000
 FoFCou: FMM=F IPFlag=           0 FMFlag=      100000 FMFlg1=           0
         NFxFlg=           0 DoJE=T BraDBF=F KetDBF=T FulRan=T
         wScrn=  0.000000 ICntrl=       500 IOpCl=  0 I1Cent=   200000004 NGrid=           0
         NMat0=    1 NMatS0=      1 NMatT0=    0 NMatD0=    1 NMtDS0=    0 NMtDT0=    0
 Petite list used in FoFCou.
 Initial guess <Sx>= 0.0000 <Sy>= 0.0000 <Sz>= 0.5000 <S**2>= 0.7500 S= 0.5000
 Keep R1 and R2 ints in memory in canonical form, NReq=78377335.
 Gradient too large for Newton-Raphson -- use scaled steepest descent instead.
     Minimum is close to point  3 DX=  7.21D-03 DF= -4.08D-05 DXR=  1.77D-02 DFR=  3.13D-04 which will be used.
 Gradient too large for Newton-Raphson -- use scaled steepest descent instead.
 Gradient too large for Newton-Raphson -- use scaled steepest descent instead.
     Accept linear search using points  1 and  2.
 Gradient too large for Newton-Raphson -- use scaled steepest descent instead.
     Accept linear search using points  2 and  3.
 Gradient too large for Newton-Raphson -- use scaled steepest descent instead.
     Accept linear search using points  1 and  2.
 Gradient too large for Newton-Raphson -- use scaled steepest descent instead.
 LinEq1:  Iter=  0 NonCon=     1 RMS=3.24D-04 Max=1.92D-02 NDo=     1
 AX will form     1 AO Fock derivatives at one time.
 LinEq1:  Iter=  1 NonCon=     1 RMS=4.21D-04 Max=1.52D-02 NDo=     1
 LinEq1:  Iter=  2 NonCon=     1 RMS=3.08D-04 Max=6.16D-03 NDo=     1
 LinEq1:  Iter=  3 NonCon=     1 RMS=1.25D-04 Max=5.57D-03 NDo=     1
 LinEq1:  Iter=  4 NonCon=     1 RMS=4.60D-05 Max=1.39D-03 NDo=     1
 LinEq1:  Iter=  5 NonCon=     1 RMS=3.42D-05 Max=9.73D-04 NDo=     1
 LinEq1:  Iter=  6 NonCon=     1 RMS=1.42D-05 Max=3.98D-04 NDo=     1
 LinEq1:  Iter=  7 NonCon=     1 RMS=7.04D-06 Max=1.79D-04 NDo=     1
 LinEq1:  Iter=  8 NonCon=     1 RMS=2.55D-06 Max=2.76D-05 NDo=     1
 LinEq1:  Iter=  9 NonCon=     1 RMS=1.47D-06 Max=2.36D-05 NDo=     1
 LinEq1:  Iter= 10 NonCon=     1 RMS=5.92D-07 Max=1.04D-05 NDo=     1
 LinEq1:  Iter= 11 NonCon=     1 RMS=2.42D-07 Max=2.73D-06 NDo=     1
 LinEq1:  Iter= 12 NonCon=     1 RMS=1.19D-07 Max=1.17D-06 NDo=     1
 LinEq1:  Iter= 13 NonCon=     1 RMS=5.86D-08 Max=5.50D-07 NDo=     1
 LinEq1:  Iter= 14 NonCon=     1 RMS=2.55D-08 Max=2.55D-07 NDo=     1
 LinEq1:  Iter= 15 NonCon=     1 RMS=6.54D-09 Max=8.83D-08 NDo=     1
 LinEq1:  Iter= 16 NonCon=     0 RMS=1.39D-09 Max=2.18D-08 NDo=     1
 Linear equations converged to 6.761D-09 6.761D-08 after    16 iterations.
     Accept linear search using points  1 and  2.
     Minimum is close to point  2 DX= -3.10D-03 DF= -2.93D-10 DXR=  3.11D-03 DFR=  9.68D-06 which will be used.
 LinEq1:  Iter=  0 NonCon=     1 RMS=2.02D-06 Max=1.22D-04 NDo=     1
 LinEq1:  Iter=  1 NonCon=     1 RMS=3.52D-06 Max=1.62D-04 NDo=     1
 LinEq1:  Iter=  2 NonCon=     1 RMS=1.82D-06 Max=4.01D-05 NDo=     1
 LinEq1:  Iter=  3 NonCon=     1 RMS=2.04D-06 Max=6.64D-05 NDo=     1
 LinEq1:  Iter=  4 NonCon=     1 RMS=6.07D-07 Max=1.73D-05 NDo=     1
 LinEq1:  Iter=  5 NonCon=     1 RMS=3.63D-07 Max=1.14D-05 NDo=     1
 LinEq1:  Iter=  6 NonCon=     1 RMS=1.68D-07 Max=2.48D-06 NDo=     1
 LinEq1:  Iter=  7 NonCon=     1 RMS=7.60D-08 Max=9.75D-07 NDo=     1
 LinEq1:  Iter=  8 NonCon=     1 RMS=3.80D-08 Max=5.99D-07 NDo=     1
 LinEq1:  Iter=  9 NonCon=     1 RMS=2.05D-08 Max=3.09D-07 NDo=     1
 LinEq1:  Iter= 10 NonCon=     1 RMS=1.12D-08 Max=1.79D-07 NDo=     1
 LinEq1:  Iter= 11 NonCon=     1 RMS=4.46D-09 Max=6.39D-08 NDo=     1
 LinEq1:  Iter= 12 NonCon=     1 RMS=1.90D-09 Max=3.45D-08 NDo=     1
 LinEq1:  Iter= 13 NonCon=     1 RMS=9.76D-10 Max=1.65D-08 NDo=     1
 LinEq1:  Iter= 14 NonCon=     1 RMS=3.28D-10 Max=4.79D-09 NDo=     1
 LinEq1:  Iter= 15 NonCon=     0 RMS=9.92D-11 Max=2.65D-09 NDo=     1
 Linear equations converged to 2.872D-10 2.872D-09 after    15 iterations.
 SCF Done:  E(UB3LYP) =  -268.955745381     a.u. after    9 cycles
            Convg  =    0.1220D-07                    50 Fock formations.
              S**2 =  0.7552                  -V/T =  2.0033
 <Sx>= 0.0000 <Sy>= 0.0000 <Sz>= 0.5000 <S**2>= 0.7552 S= 0.5026
 <L.S>=  0.00000000000    
 Annihilation of the first spin contaminant:
 S**2 before annihilation     0.7552,   after     0.7500
 DoSCS=F DFT=T ScalE2(SS,OS)=  1.000000  1.000000
 Range of M.O.s used for correlation:     1   132
 NBasis=   132 NAE=    21 NBE=    20 NFC=     0 NFV=     0
 NROrb=    132 NOA=    21 NOB=    20 NVA=   111 NVB=   112

 **** Warning!!: The smallest beta delta epsilon is  0.80705255D-01

 Symmetrizing basis deriv contribution to polar:
 IMax=3 JMax=2 DiffMx= 0.00D+00
 G2DrvN: will do    13 centers at a time, making    1 passes.
 Calling FoFCou, ICntrl=  3107 FMM=F I1Cent=   0 AccDes= 0.00D+00.
 End of G2Drv F.D. properties file   721 does not exist.
 End of G2Drv F.D. properties file   722 does not exist.
 End of G2Drv F.D. properties file   788 does not exist.
          IDoAtm=111111111111
          Differentiating once with respect to nuclear coordinates.
 Keep R1 and R2 ints in memory in canonical form, NReq=78382142.
          There are    39 degrees of freedom in the 1st order CPHF.  IDoFFX=6 NUNeed=     0.
     33 vectors produced by pass  0 Test12= 1.17D-14 2.56D-09 XBig12= 3.27D-01 2.05D-01.
 AX will form    33 AO Fock derivatives at one time.
     33 vectors produced by pass  1 Test12= 1.17D-14 2.56D-09 XBig12= 1.40D-02 3.09D-02.
     33 vectors produced by pass  2 Test12= 1.17D-14 2.56D-09 XBig12= 5.28D-04 4.91D-03.
     33 vectors produced by pass  3 Test12= 1.17D-14 2.56D-09 XBig12= 4.09D-06 2.14D-04.
     33 vectors produced by pass  4 Test12= 1.17D-14 2.56D-09 XBig12= 3.79D-08 2.65D-05.
     33 vectors produced by pass  5 Test12= 1.17D-14 2.56D-09 XBig12= 1.88D-10 1.79D-06.
     22 vectors produced by pass  6 Test12= 1.17D-14 2.56D-09 XBig12= 6.70D-13 9.14D-08.
      2 vectors produced by pass  7 Test12= 1.17D-14 2.56D-09 XBig12= 2.14D-15 6.53D-09.
 InvSVY:  IOpt=1 It=  1 EMax= 1.11D-15
 Solved reduced A of dimension   222 with    33 vectors.
 End of Minotr F.D. properties file   721 does not exist.
 End of Minotr F.D. properties file   722 does not exist.
 End of Minotr F.D. properties file   788 does not exist.

 **********************************************************************

            Population analysis using the SCF density.

 **********************************************************************

 Orbital symmetries:
 Alpha Orbitals:
       Occupied  (A) (A) (A) (A) (A) (A) (A) (A) (A) (A) (A) (A)
                 (A) (A) (A) (A) (A) (A) (A) (A) (A)
       Virtual   (A) (A) (A) (A) (A) (A) (A) (A) (A) (A) (A) (A)
                 (A) (A) (A) (A) (A) (A) (A) (A) (A) (A) (A) (A)
                 (A) (A) (A) (A) (A) (A) (A) (A) (A) (A) (A) (A)
                 (A) (A) (A) (A) (A) (A) (A) (A) (A) (A) (A) (A)
                 (A) (A) (A) (A) (A) (A) (A) (A) (A) (A) (A) (A)
                 (A) (A) (A) (A) (A) (A) (A) (A) (A) (A) (A) (A)
                 (A) (A) (A) (A) (A) (A) (A) (A) (A) (A) (A) (A)
                 (A) (A) (A) (A) (A) (A) (A) (A) (A) (A) (A) (A)
                 (A) (A) (A) (A) (A) (A) (A) (A) (A) (A) (A) (A)
                 (A) (A) (A)
 Beta  Orbitals:
       Occupied  (A) (A) (A) (A) (A) (A) (A) (A) (A) (A) (A) (A)
                 (A) (A) (A) (A) (A) (A) (A) (A)
       Virtual   (A) (A) (A) (A) (A) (A) (A) (A) (A) (A) (A) (A)
                 (A) (A) (A) (A) (A) (A) (A) (A) (A) (A) (A) (A)
                 (A) (A) (A) (A) (A) (A) (A) (A) (A) (A) (A) (A)
                 (A) (A) (A) (A) (A) (A) (A) (A) (A) (A) (A) (A)
                 (A) (A) (A) (A) (A) (A) (A) (A) (A) (A) (A) (A)
                 (A) (A) (A) (A) (A) (A) (A) (A) (A) (A) (A) (A)
                 (A) (A) (A) (A) (A) (A) (A) (A) (A) (A) (A) (A)
                 (A) (A) (A) (A) (A) (A) (A) (A) (A) (A) (A) (A)
                 (A) (A) (A) (A) (A) (A) (A) (A) (A) (A) (A) (A)
                 (A) (A) (A) (A)
 The electronic state is 2-A.
 Alpha  occ. eigenvalues --  -19.14197 -19.14108 -10.24307 -10.23594 -10.17911
 Alpha  occ. eigenvalues --   -1.07620  -1.00069  -0.77473  -0.68618  -0.59459
 Alpha  occ. eigenvalues --   -0.54214  -0.51072  -0.47082  -0.44588  -0.42253
 Alpha  occ. eigenvalues --   -0.41177  -0.39344  -0.33251  -0.33113  -0.30182
 Alpha  occ. eigenvalues --   -0.28930
 Alpha virt. eigenvalues --    0.03517   0.06453   0.07437   0.09433   0.10566
 Alpha virt. eigenvalues --    0.11739   0.11850   0.18297   0.18832   0.21325
 Alpha virt. eigenvalues --    0.24773   0.29124   0.31100   0.34213   0.35298
 Alpha virt. eigenvalues --    0.39606   0.44918   0.46651   0.47648   0.50777
 Alpha virt. eigenvalues --    0.52981   0.53732   0.54925   0.56149   0.57814
 Alpha virt. eigenvalues --    0.58688   0.62355   0.69052   0.74145   0.76618
 Alpha virt. eigenvalues --    0.80203   0.85657   0.89381   0.93848   0.95554
 Alpha virt. eigenvalues --    1.00576   1.01009   1.05274   1.16575   1.26749
 Alpha virt. eigenvalues --    1.31007   1.36603   1.40964   1.43879   1.44989
 Alpha virt. eigenvalues --    1.45889   1.49340   1.50469   1.51443   1.55404
 Alpha virt. eigenvalues --    1.57578   1.59247   1.61232   1.63954   1.66409
 Alpha virt. eigenvalues --    1.69613   1.75741   1.81454   1.82161   1.85908
 Alpha virt. eigenvalues --    1.91629   1.95265   2.03906   2.05391   2.09875
 Alpha virt. eigenvalues --    2.12472   2.19562   2.30044   2.34468   2.35610
 Alpha virt. eigenvalues --    2.39448   2.43669   2.45679   2.47591   2.49654
 Alpha virt. eigenvalues --    2.53106   2.55491   2.61782   2.67822   2.71283
 Alpha virt. eigenvalues --    2.74987   2.78911   2.86835   2.97221   3.02854
 Alpha virt. eigenvalues --    3.05404   3.14009   3.16291   3.20044   3.24624
 Alpha virt. eigenvalues --    3.32961   3.48310   3.64312   3.73226   3.79099
 Alpha virt. eigenvalues --    3.79174   3.89665   3.95985   4.03109   4.26053
 Alpha virt. eigenvalues --    4.82056   4.87405   5.03907   5.33200   5.43401
 Alpha virt. eigenvalues --    5.60380  23.70386  23.77334  23.90318  49.84312
 Alpha virt. eigenvalues --   49.89029
  Beta  occ. eigenvalues --  -19.13082 -19.12993 -10.24274 -10.23561 -10.17884
  Beta  occ. eigenvalues --   -1.05617  -0.97547  -0.76856  -0.67938  -0.58355
  Beta  occ. eigenvalues --   -0.53520  -0.49882  -0.45972  -0.43158  -0.41829
  Beta  occ. eigenvalues --   -0.39998  -0.38291  -0.32356  -0.29370  -0.26051
  Beta virt. eigenvalues --   -0.17981   0.03710   0.06711   0.07607   0.09623
  Beta virt. eigenvalues --    0.10764   0.11966   0.12145   0.18698   0.19238
  Beta virt. eigenvalues --    0.21522   0.25150   0.29380   0.31315   0.35010
  Beta virt. eigenvalues --    0.35587   0.40063   0.45311   0.47297   0.48131
  Beta virt. eigenvalues --    0.51337   0.53510   0.53899   0.55256   0.56288
  Beta virt. eigenvalues --    0.57967   0.58829   0.62521   0.69217   0.74735
  Beta virt. eigenvalues --    0.78054   0.81412   0.86429   0.90684   0.94473
  Beta virt. eigenvalues --    0.96439   1.00933   1.01772   1.05885   1.16963
  Beta virt. eigenvalues --    1.27161   1.31279   1.37039   1.41210   1.43939
  Beta virt. eigenvalues --    1.45441   1.46668   1.49690   1.51109   1.51834
  Beta virt. eigenvalues --    1.55633   1.58152   1.59833   1.61757   1.64802
  Beta virt. eigenvalues --    1.66903   1.70111   1.76169   1.82002   1.82608
  Beta virt. eigenvalues --    1.86288   1.92275   1.95969   2.04548   2.05716
  Beta virt. eigenvalues --    2.10223   2.13162   2.20043   2.30768   2.34798
  Beta virt. eigenvalues --    2.35752   2.39906   2.43936   2.46225   2.47961
  Beta virt. eigenvalues --    2.49828   2.53465   2.55801   2.62163   2.68483
  Beta virt. eigenvalues --    2.72148   2.75524   2.79771   2.89519   2.98255
  Beta virt. eigenvalues --    3.03947   3.08128   3.15941   3.18020   3.20971
  Beta virt. eigenvalues --    3.26587   3.34188   3.50694   3.65404   3.74675
  Beta virt. eigenvalues --    3.79223   3.79408   3.90506   3.96741   4.03559
  Beta virt. eigenvalues --    4.26239   4.86751   4.92075   5.04893   5.34241
  Beta virt. eigenvalues --    5.44375   5.61263  23.70427  23.77370  23.90347
  Beta virt. eigenvalues --   49.85433  49.90149
          Condensed to atoms (all electrons):
               1          2          3          4          5          6
     1  C    4.963372   0.374333   0.401902   0.385314   0.322337  -0.054919
     2  H    0.374333   0.597945  -0.027112  -0.024543  -0.032378  -0.001107
     3  H    0.401902  -0.027112   0.555044  -0.027456  -0.028333  -0.008413
     4  H    0.385314  -0.024543  -0.027456   0.567886  -0.030163   0.009500
     5  C    0.322337  -0.032378  -0.028333  -0.030163   5.006433   0.369665
     6  H   -0.054919  -0.001107  -0.008413   0.009500   0.369665   0.603127
     7  C   -0.067966   0.003076   0.007304  -0.006637   0.326385  -0.043456
     8  H   -0.005465   0.002850  -0.000761   0.000393  -0.034665  -0.000298
     9  H    0.011912  -0.002547   0.000231   0.002801  -0.048757   0.005693
    10  O   -0.061173   0.004697   0.001259   0.004349   0.290011  -0.027285
    11  O    0.002851   0.000185  -0.000216   0.000420  -0.047146  -0.002548
    12  H    0.005304  -0.000515  -0.000423   0.000439  -0.052160   0.004496
               7          8          9         10         11         12
     1  C   -0.067966  -0.005465   0.011912  -0.061173   0.002851   0.005304
     2  H    0.003076   0.002850  -0.002547   0.004697   0.000185  -0.000515
     3  H    0.007304  -0.000761   0.000231   0.001259  -0.000216  -0.000423
     4  H   -0.006637   0.000393   0.002801   0.004349   0.000420   0.000439
     5  C    0.326385  -0.034665  -0.048757   0.290011  -0.047146  -0.052160
     6  H   -0.043456  -0.000298   0.005693  -0.027285  -0.002548   0.004496
     7  C    4.845828   0.380846   0.373532  -0.050632   0.303019  -0.058598
     8  H    0.380846   0.609355  -0.043265   0.003174  -0.033442   0.006603
     9  H    0.373532  -0.043265   0.594132  -0.001786  -0.026284   0.003019
    10  O   -0.050632   0.003174  -0.001786   8.060640  -0.089076   0.208557
    11  O    0.303019  -0.033442  -0.026284  -0.089076   8.019096   0.215166
    12  H   -0.058598   0.006603   0.003019   0.208557   0.215166   0.392950
          Atomic-Atomic Spin Densities.
               1          2          3          4          5          6
     1  C   -0.027812   0.006299  -0.000452   0.000156   0.031794   0.000743
     2  H    0.006299  -0.002159  -0.000105   0.000650  -0.004359   0.001071
     3  H   -0.000452  -0.000105   0.001159  -0.001076   0.002531  -0.001667
     4  H    0.000156   0.000650  -0.001076   0.004627  -0.006034   0.001967
     5  C    0.031794  -0.004359   0.002531  -0.006034  -0.026901  -0.007869
     6  H    0.000743   0.001071  -0.001667   0.001967  -0.007869   0.121741
     7  C    0.001183  -0.000639   0.000159  -0.001324   0.036931  -0.013135
     8  H    0.003294  -0.000804   0.000131  -0.000527   0.003599  -0.007322
     9  H   -0.007776   0.001641  -0.000395   0.004748  -0.012173   0.006278
    10  O    0.001607  -0.000096  -0.000081   0.002284  -0.031853  -0.015499
    11  O   -0.000120   0.000013  -0.000012  -0.000298  -0.002467   0.006297
    12  H    0.000046   0.000006   0.000008  -0.000021   0.001480   0.000114
               7          8          9         10         11         12
     1  C    0.001183   0.003294  -0.007776   0.001607  -0.000120   0.000046
     2  H   -0.000639  -0.000804   0.001641  -0.000096   0.000013   0.000006
     3  H    0.000159   0.000131  -0.000395  -0.000081  -0.000012   0.000008
     4  H   -0.001324  -0.000527   0.004748   0.002284  -0.000298  -0.000021
     5  C    0.036931   0.003599  -0.012173  -0.031853  -0.002467   0.001480
     6  H   -0.013135  -0.007322   0.006278  -0.015499   0.006297   0.000114
     7  C   -0.018617   0.014326   0.001225  -0.002016  -0.030821   0.001460
     8  H    0.014326   0.006924  -0.007840  -0.000289  -0.000381  -0.000214
     9  H    0.001225  -0.007840   0.113221   0.005468  -0.014140   0.000283
    10  O   -0.002016  -0.000289   0.005468   0.473246  -0.008982  -0.005246
    11  O   -0.030821  -0.000381  -0.014140  -0.008982   0.473571  -0.005073
    12  H    0.001460  -0.000214   0.000283  -0.005246  -0.005073  -0.012376
 Mulliken charges and spin densities:
               1          2
     1  C   -0.277801   0.008962
     2  H    0.105116   0.001518
     3  H    0.126975   0.000200
     4  H    0.117697   0.005154
     5  C   -0.041228  -0.015322
     6  H    0.145546   0.092719
     7  C   -0.012701  -0.011266
     8  H    0.114675   0.010897
     9  H    0.131318   0.090541
    10  O   -0.342733   0.418544
    11  O   -0.342026   0.417586
    12  H    0.275163  -0.019533
 Sum of Mulliken charges =   0.00000   1.00000
 Mulliken charges and spin densities with hydrogens summed into heavy atoms:
               1          2
     1  C    0.071986   0.015834
     5  C    0.104318   0.077397
     7  C    0.233292   0.090172
    10  O   -0.342733   0.418544
    11  O   -0.066864   0.398053
 APT charges:
               1
     1  C   -1.022965
     2  H    0.360158
     3  H    0.445937
     4  H    0.289511
     5  C   -0.333795
     6  H    0.357660
     7  C   -0.572339
     8  H    0.391571
     9  H    0.311101
    10  O   -0.260246
    11  O   -0.197095
    12  H    0.230501
 Sum of APT charges =   0.00000
 APT charges with hydrogens summed into heavy atoms:
               1
     1  C    0.072641
     5  C    0.023865
     7  C    0.130333
    10  O   -0.260246
    11  O    0.033406
 Electronic spatial extent (au):  <R**2>=            432.8818
 Charge=              0.0000 electrons
 Dipole moment (field-independent basis, Debye):
    X=             -1.7816    Y=             -2.1188    Z=              0.5462  Tot=              2.8216
 Quadrupole moment (field-independent basis, Debye-Ang):
   XX=            -34.6244   YY=            -32.1753   ZZ=            -29.5613
   XY=              0.7468   XZ=             -0.0243   YZ=              0.1626
 Traceless Quadrupole moment (field-independent basis, Debye-Ang):
   XX=             -2.5041   YY=             -0.0549   ZZ=              2.5590
   XY=              0.7468   XZ=             -0.0243   YZ=              0.1626
 Octapole moment (field-independent basis, Debye-Ang**2):
  XXX=             -6.3032  YYY=             -1.4715  ZZZ=             -0.1983  XYY=              5.3713
  XXY=              3.5603  XXZ=              1.0514  XZZ=              2.1989  YZZ=              0.8727
  YYZ=              0.3268  XYZ=             -0.7177
 Hexadecapole moment (field-independent basis, Debye-Ang**3):
 XXXX=           -365.9909 YYYY=           -149.3978 ZZZZ=            -54.8460 XXXY=             -0.7122
 XXXZ=             -1.2798 YYYX=              2.3024 YYYZ=             -1.4405 ZZZX=             -0.5101
 ZZZY=              0.4353 XXYY=            -77.1952 XXZZ=            -66.9474 YYZZ=            -33.0066
 XXYZ=             -0.8460 YYXZ=             -1.1084 ZZXY=             -0.7366
 N-N= 1.892323055528D+02 E-N=-1.008951018998D+03  KE= 2.680619045961D+02
  Exact polarizability:   0.000   0.000   0.000   0.000   0.000   0.000
 Approx polarizability: 124.360 -39.348  97.696 -12.675   4.263  54.480
                          Isotropic Fermi Contact Couplings
        Atom                 a.u.       MegaHertz       Gauss      10(-4) cm-1
     1  C(13)              0.01104      12.40731       4.42724       4.13863
     2  H(1)               0.00070       3.14351       1.12168       1.04856
     3  H(1)               0.00026       1.15577       0.41241       0.38552
     4  H(1)              -0.00001      -0.05176      -0.01847      -0.01727
     5  C(13)             -0.01360     -15.28348      -5.45353      -5.09802
     6  H(1)               0.03960     176.99374      63.15577      59.03876
     7  C(13)             -0.01286     -14.46041      -5.15983      -4.82347
     8  H(1)               0.00738      33.00869      11.77832      11.01051
     9  H(1)               0.03925     175.45468      62.60659      58.52538
    10  O(17)              0.03476     -21.07389      -7.51969      -7.02949
    11  O(17)              0.03422     -20.74546      -7.40250      -6.91994
    12  H(1)              -0.00427     -19.07537      -6.80657      -6.36286
 --------------------------------------------------------
       Center         ----  Spin Dipole Couplings  ----
                      3XX-RR        3YY-RR        3ZZ-RR
 --------------------------------------------------------
     1   Atom        0.016308     -0.003585     -0.012723
     2   Atom        0.002765      0.000500     -0.003265
     3   Atom        0.008426     -0.003984     -0.004442
     4   Atom        0.003383     -0.002319     -0.001064
     5   Atom       -0.029770      0.009972      0.019797
     6   Atom       -0.005479     -0.007151      0.012631
     7   Atom       -0.013351     -0.016190      0.029541
     8   Atom       -0.004663      0.011775     -0.007112
     9   Atom       -0.002566      0.001735      0.000831
    10   Atom       -0.817736     -0.614642      1.432378
    11   Atom       -0.876760     -0.809699      1.686459
    12   Atom        0.040177      0.000341     -0.040518
 --------------------------------------------------------
                        XY            XZ            YZ
 --------------------------------------------------------
     1   Atom        0.015250      0.006764      0.004010
     2   Atom        0.004527     -0.000060     -0.000169
     3   Atom        0.000674     -0.000534     -0.000173
     4   Atom        0.003537      0.005011      0.002380
     5   Atom       -0.010119     -0.033301      0.050045
     6   Atom        0.001347     -0.002349     -0.008421
     7   Atom       -0.008718     -0.051684      0.029971
     8   Atom       -0.004504      0.000971     -0.009885
     9   Atom        0.006199      0.008731      0.008876
    10   Atom        0.116866      0.336729      0.771030
    11   Atom       -0.007439     -0.058268      0.378902
    12   Atom       -0.054207      0.000247     -0.001690
 --------------------------------------------------------


 ---------------------------------------------------------------------------------
              Anisotropic Spin Dipole Couplings in Principal Axis System
 ---------------------------------------------------------------------------------

       Atom             a.u.   MegaHertz   Gauss  10(-4) cm-1        Axes

              Baa    -0.0143    -1.925    -0.687    -0.642 -0.1165 -0.1976  0.9733
     1 C(13)  Bbb    -0.0118    -1.585    -0.565    -0.529 -0.4949  0.8612  0.1156
              Bcc     0.0262     3.510     1.252     1.171  0.8611  0.4682  0.1981
 
              Baa    -0.0033    -1.762    -0.629    -0.588 -0.1962  0.2754  0.9411
     2 H(1)   Bbb    -0.0030    -1.600    -0.571    -0.534 -0.5835  0.7385 -0.3378
              Bcc     0.0063     3.362     1.200     1.122  0.7880  0.6154 -0.0158
 
              Baa    -0.0045    -2.405    -0.858    -0.802  0.0247  0.2852  0.9581
     3 H(1)   Bbb    -0.0040    -2.123    -0.757    -0.708 -0.0642  0.9569 -0.2832
              Bcc     0.0085     4.527     1.615     1.510  0.9976  0.0545 -0.0419
 
              Baa    -0.0043    -2.313    -0.825    -0.771 -0.4751 -0.1826  0.8608
     4 H(1)   Bbb    -0.0040    -2.140    -0.764    -0.714 -0.4122  0.9104 -0.0345
              Bcc     0.0083     4.453     1.589     1.485  0.7774  0.3712  0.5078
 
              Baa    -0.0518    -6.945    -2.478    -2.317  0.7257 -0.3576  0.5878
     5 C(13)  Bbb    -0.0231    -3.095    -1.104    -1.032  0.6225  0.7051 -0.3396
              Bcc     0.0748    10.041     3.583     3.349 -0.2930  0.6124  0.7343
 
              Baa    -0.0103    -5.493    -1.960    -1.832 -0.0991  0.9373  0.3341
     6 H(1)   Bbb    -0.0058    -3.076    -1.098    -1.026  0.9874  0.0511  0.1495
              Bcc     0.0161     8.569     3.058     2.858 -0.1230 -0.3447  0.9306
 
              Baa    -0.0511    -6.858    -2.447    -2.287  0.7367 -0.3250  0.5930
     7 C(13)  Bbb    -0.0229    -3.067    -1.094    -1.023  0.4480  0.8914 -0.0680
              Bcc     0.0740     9.925     3.541     3.311 -0.5065  0.3157  0.8024
 
              Baa    -0.0115    -6.118    -2.183    -2.041  0.1434  0.4108  0.9004
     8 H(1)   Bbb    -0.0055    -2.926    -1.044    -0.976  0.9682  0.1303 -0.2137
              Bcc     0.0169     9.044     3.227     3.017 -0.2051  0.9024 -0.3790
 
              Baa    -0.0099    -5.286    -1.886    -1.763 -0.6945 -0.1643  0.7005
     9 H(1)   Bbb    -0.0062    -3.322    -1.185    -1.108 -0.5240  0.7826 -0.3360
              Bcc     0.0161     8.608     3.072     2.871  0.4930  0.6004  0.6296
 
              Baa    -0.8747    63.294    22.585    21.113 -0.4725  0.8543 -0.2166
    10 O(17)  Bbb    -0.8652    62.609    22.340    20.884  0.8705  0.4138 -0.2664
              Bcc     1.7400  -125.902   -44.925   -41.997  0.1380  0.3144  0.9392
 
              Baa    -0.8782    63.545    22.675    21.196  0.9950 -0.0930  0.0363
    11 O(17)  Bbb    -0.8658    62.651    22.355    20.898  0.0973  0.9848 -0.1440
              Bcc     1.7440  -126.196   -45.030   -42.095 -0.0224  0.1468  0.9889
 
              Baa    -0.0410   -21.862    -7.801    -7.292  0.1850  0.2812  0.9417
    12 H(1)   Bbb    -0.0370   -19.766    -7.053    -6.593  0.5418  0.7703 -0.3364
              Bcc     0.0780    41.628    14.854    13.886  0.8199 -0.5724  0.0099
 

 ---------------------------------------------------------------------------------

 Calling FoFJK, ICntrl=    100147 FMM=F ISym2X=0 I1Cent= 0 IOpClX= 1 NMat=1 NMatS=1 NMatT=0.
 ***** Axes restored to original set *****
 -------------------------------------------------------------------
 Center     Atomic                   Forces (Hartrees/Bohr)
 Number     Number              X              Y              Z
 -------------------------------------------------------------------
      1        6          -0.000000234    0.000001151   -0.000003585
      2        1          -0.000000154   -0.000000111    0.000001096
      3        1           0.000000435   -0.000000619    0.000000012
      4        1           0.000001097   -0.000001735   -0.000000040
      5        6           0.000007178    0.000002853    0.000008490
      6        1          -0.000000445    0.000001487   -0.000000512
      7        6           0.000005663   -0.000012780   -0.000011310
      8        1           0.000000175    0.000000826    0.000003893
      9        1          -0.000003162    0.000003967   -0.000000483
     10        8          -0.000009113   -0.000003398   -0.000000909
     11        8           0.000004257    0.000010497    0.000005796
     12        1          -0.000005697   -0.000002140   -0.000002448
 -------------------------------------------------------------------
 Cartesian Forces:  Max     0.000012780 RMS     0.000004773
 FormGI is forming the generalized inverse of G from B-inverse, IUseBI=4.

 GradGradGradGradGradGradGradGradGradGradGradGradGradGradGradGradGradGrad
 Berny optimization.
 Internal  Forces:  Max     0.000008812 RMS     0.000002339
 Search for a saddle point.
 Step number   1 out of a maximum of  100
 All quantities printed in internal units (Hartrees-Bohrs-Radians)
 Swapping is turned off.
 Second derivative matrix not updated -- analytic derivatives used.
 ITU=  0
     Eigenvalues ---   -0.09272   0.00153   0.00259   0.00985   0.02756
     Eigenvalues ---    0.03393   0.04235   0.04403   0.04464   0.04702
     Eigenvalues ---    0.06456   0.06930   0.08804   0.10289   0.11388
     Eigenvalues ---    0.12306   0.14409   0.15526   0.16799   0.23475
     Eigenvalues ---    0.25037   0.28015   0.28606   0.29155   0.31538
     Eigenvalues ---    0.33282   0.33572   0.34328   0.35157   0.38859
 Eigenvectors required to have negative eigenvalues:
                          R12       R11       A20       A19       R7
   1                   -0.69244   0.69229   0.09569  -0.09125  -0.05802
                          R10       A18       D15       A11       D17
   1                    0.05435   0.04782   0.03999  -0.03946  -0.03831
 RFO step:  Lambda0=2.182810113D-10 Lambda= 0.00000000D+00.
 Linear search not attempted -- option 19 set.
 Iteration  1 RMS(Cart)=  0.00024281 RMS(Int)=  0.00000005
 Iteration  2 RMS(Cart)=  0.00000006 RMS(Int)=  0.00000001
 Variable       Old X    -DE/DX   Delta X   Delta X   Delta X     New X
                                 (Linear)    (Quad)   (Total)
    R1        2.06774  -0.00000   0.00000  -0.00000  -0.00000   2.06774
    R2        2.06265  -0.00000   0.00000  -0.00000  -0.00000   2.06264
    R3        2.06474   0.00000   0.00000   0.00000   0.00000   2.06474
    R4        2.87538  -0.00000   0.00000   0.00004   0.00004   2.87541
    R5        2.09501  -0.00000   0.00000  -0.00000  -0.00000   2.09501
    R6        3.00007   0.00001   0.00000  -0.00007  -0.00007   3.00000
    R7        2.59366  -0.00001   0.00000   0.00001   0.00001   2.59367
    R8        2.07365  -0.00000   0.00000   0.00002   0.00002   2.07367
    R9        2.09086   0.00000   0.00000   0.00000   0.00000   2.09086
   R10        2.58636  -0.00000   0.00000   0.00002   0.00002   2.58638
   R11        2.28483  -0.00000   0.00000  -0.00009  -0.00009   2.28474
   R12        2.27874  -0.00001   0.00000  -0.00003  -0.00003   2.27871
    A1        1.89306   0.00000   0.00000   0.00001   0.00001   1.89307
    A2        1.89801   0.00000   0.00000   0.00002   0.00002   1.89803
    A3        1.93137  -0.00000   0.00000  -0.00000  -0.00000   1.93137
    A4        1.88938   0.00000   0.00000   0.00001   0.00001   1.88939
    A5        1.92970  -0.00000   0.00000  -0.00002  -0.00002   1.92969
    A6        1.92136  -0.00000   0.00000  -0.00002  -0.00002   1.92134
    A7        1.91129   0.00000   0.00000  -0.00005  -0.00005   1.91125
    A8        2.03780  -0.00000   0.00000  -0.00005  -0.00005   2.03775
    A9        1.97977   0.00000   0.00000  -0.00006  -0.00006   1.97971
   A10        1.81922   0.00000   0.00000   0.00015   0.00015   1.81937
   A11        1.90422  -0.00000   0.00000  -0.00002  -0.00002   1.90421
   A12        1.80065  -0.00000   0.00000   0.00004   0.00004   1.80069
   A13        2.01227  -0.00000   0.00000  -0.00007  -0.00007   2.01220
   A14        1.84864  -0.00000   0.00000   0.00012   0.00012   1.84877
   A15        1.82055  -0.00000   0.00000   0.00004   0.00004   1.82059
   A16        1.87838   0.00000   0.00000  -0.00005  -0.00005   1.87833
   A17        1.96340   0.00000   0.00000  -0.00006  -0.00006   1.96335
   A18        1.93786   0.00000   0.00000   0.00003   0.00003   1.93789
   A19        1.63820   0.00000   0.00000   0.00002   0.00002   1.63823
   A20        1.62754   0.00000   0.00000   0.00002   0.00002   1.62756
   A21        2.47690   0.00000   0.00000   0.00005   0.00005   2.47694
    D1       -1.06555   0.00000   0.00000   0.00017   0.00017  -1.06538
    D2        0.99540   0.00000   0.00000   0.00030   0.00030   0.99570
    D3        3.08590   0.00000   0.00000   0.00027   0.00027   3.08616
    D4        1.03227   0.00000   0.00000   0.00018   0.00018   1.03245
    D5        3.09323   0.00000   0.00000   0.00030   0.00030   3.09353
    D6       -1.09946   0.00000   0.00000   0.00027   0.00027  -1.09919
    D7        3.11905  -0.00000   0.00000   0.00017   0.00017   3.11922
    D8       -1.10317   0.00000   0.00000   0.00029   0.00029  -1.10288
    D9        0.98732  -0.00000   0.00000   0.00026   0.00026   0.98758
   D10       -1.59999  -0.00000   0.00000  -0.00062  -0.00062  -1.60061
   D11        0.47490  -0.00000   0.00000  -0.00064  -0.00064   0.47425
   D12        2.52132  -0.00000   0.00000  -0.00054  -0.00054   2.52077
   D13        0.51035  -0.00000   0.00000  -0.00060  -0.00060   0.50975
   D14        2.58524  -0.00000   0.00000  -0.00062  -0.00062   2.58461
   D15       -1.65153   0.00000   0.00000  -0.00052  -0.00052  -1.65205
   D16        2.49936  -0.00000   0.00000  -0.00055  -0.00055   2.49881
   D17       -1.70894  -0.00000   0.00000  -0.00057  -0.00057  -1.70951
   D18        0.33747  -0.00000   0.00000  -0.00047  -0.00047   0.33701
   D19       -2.45618   0.00000   0.00000   0.00038   0.00038  -2.45579
   D20        1.69135   0.00000   0.00000   0.00049   0.00049   1.69184
   D21       -0.23518  -0.00000   0.00000   0.00031   0.00031  -0.23487
   D22       -0.24498   0.00000   0.00000   0.00034   0.00034  -0.24464
   D23       -2.43806   0.00000   0.00000   0.00043   0.00043  -2.43763
   D24        1.73880  -0.00000   0.00000   0.00052   0.00052   1.73931
   D25        0.10287   0.00000   0.00000  -0.00012  -0.00012   0.10274
   D26        0.12490   0.00000   0.00000  -0.00019  -0.00019   0.12471
         Item               Value     Threshold  Converged?
 Maximum Force            0.000009     0.000015     YES
 RMS     Force            0.000002     0.000010     YES
 Maximum Displacement     0.000731     0.000060     NO 
 RMS     Displacement     0.000243     0.000040     NO 
 Predicted change in Energy=-4.795503D-09
 GradGradGradGradGradGradGradGradGradGradGradGradGradGradGradGradGradGrad

                          Input orientation:                          
 ---------------------------------------------------------------------
 Center     Atomic      Atomic             Coordinates (Angstroms)
 Number     Number       Type             X           Y           Z
 ---------------------------------------------------------------------
      1          6           0       -4.149085    2.061747   -0.087041
      2          1           0       -5.175528    2.187489   -0.444635
      3          1           0       -3.937595    2.847803    0.640124
      4          1           0       -3.465818    2.183351   -0.930942
      5          6           0       -3.964002    0.688423    0.541453
      6          1           0       -4.644864    0.584054    1.410127
      7          6           0       -4.300077   -0.566339   -0.371169
      8          1           0       -5.330954   -0.935523   -0.299436
      9          1           0       -4.134337   -0.236278   -1.414139
     10          8           0       -2.676217    0.443432    0.948120
     11          8           0       -3.379348   -1.509377   -0.002190
     12          1           0       -2.694340   -0.709849    0.585668
 ---------------------------------------------------------------------
                    Distance matrix (angstroms):
                    1          2          3          4          5
     1  C    0.000000
     2  H    1.094199   0.000000
     3  H    1.091504   1.773470   0.000000
     4  H    1.092616   1.777532   1.769835   0.000000
     5  C    1.521604   2.165032   2.161794   2.156605   0.000000
     6  H    2.161223   2.508536   2.493530   3.070587   1.108629
     7  C    2.647708   2.890568   3.579172   2.927478   1.587530
     8  H    3.228862   3.130247   4.139779   3.688483   2.283166
     9  H    2.653737   2.810457   3.710830   2.556365   2.169891
    10  O    2.420711   3.350830   2.732569   2.679862   1.372512
    11  O    3.654123   4.133865   4.439507   3.808714   2.338310
    12  H    3.201650   3.951252   3.769024   3.356471   1.889223
                    6          7          8          9         10
     6  H    0.000000
     7  C    2.148325   0.000000
     8  H    2.387978   1.097337   0.000000
     9  H    2.984972   1.106433   1.778594   0.000000
    10  O    2.027017   2.323162   3.241225   2.858039   0.000000
    11  O    2.824646   1.368652   2.055828   2.045577   2.282750
    12  H    2.481625   1.874707   2.790353   2.509400   1.209032
                   11         12
    11  O    0.000000
    12  H    1.205844   0.000000
 Stoichiometry    C3H7O2(2)
 Framework group  C1[X(C3H7O2)]
 Deg. of freedom    30
 Full point group                 C1      NOp   1
 Largest Abelian subgroup         C1      NOp   1
 Largest concise Abelian subgroup C1      NOp   1
                         Standard orientation:                         
 ---------------------------------------------------------------------
 Center     Atomic      Atomic             Coordinates (Angstroms)
 Number     Number       Type             X           Y           Z
 ---------------------------------------------------------------------
      1          6           0       -1.837405   -0.340950   -0.177093
      2          1           0       -2.100922   -1.350875    0.151362
      3          1           0       -2.612629    0.347114    0.164926
      4          1           0       -1.819218   -0.320438   -1.269365
      5          6           0       -0.479565    0.066224    0.375862
      6          1           0       -0.515459    0.064532    1.483909
      7          6           0        0.747685   -0.877113    0.023405
      8          1           0        0.954275   -1.669997    0.753340
      9          1           0        0.490523   -1.364057   -0.936255
     10          8           0       -0.061025    1.299220   -0.058113
     11          8           0        1.802088   -0.017882   -0.128793
     12          1           0        1.090641    0.954054   -0.185719
 ---------------------------------------------------------------------
 Rotational constants (GHZ):           9.5434024           3.9851280           3.0773597
 Standard basis: 6-311G(2d,d,p) (5D, 7F)
 There are   137 symmetry adapted cartesian basis functions of A   symmetry.
 There are   132 symmetry adapted basis functions of A   symmetry.
   132 basis functions,   216 primitive gaussians,   137 cartesian basis functions
    21 alpha electrons       20 beta electrons
       nuclear repulsion energy       189.2329824558 Hartrees.
 NAtoms=   12 NActive=   12 NUniq=   12 SFac= 1.00D+00 NAtFMM=   60 NAOKFM=F Big=F
 Integral buffers will be    131072 words long.
 Raffenetti 2 integral format.
 Two-electron integral symmetry is turned on.
 One-electron integrals computed using PRISM.
 NBasis=   132 RedAO= T EigKep=  1.96D-03  NBF=   132
 NBsUse=   132 1.00D-06 EigRej= -1.00D+00 NBFU=   132
 Initial guess from the checkpoint file:  "/gpfs/summit/scratch/jasm3285/Gau-58468.chk"
 B after Tr=     0.000000   -0.000000    0.000000
         Rot=    1.000000    0.000035    0.000009   -0.000006 Ang=   0.00 deg.
 Initial guess <Sx>= 0.0000 <Sy>= 0.0000 <Sz>= 0.5000 <S**2>= 0.7552 S= 0.5026
 Keep R1 and R2 ints in memory in canonical form, NReq=78377335.
 LinEq1:  Iter=  0 NonCon=     1 RMS=6.35D-06 Max=2.36D-04 NDo=     1
 AX will form     1 AO Fock derivatives at one time.
 LinEq1:  Iter=  1 NonCon=     1 RMS=2.10D-06 Max=1.10D-04 NDo=     1
 LinEq1:  Iter=  2 NonCon=     1 RMS=4.31D-06 Max=1.70D-04 NDo=     1
 LinEq1:  Iter=  3 NonCon=     1 RMS=3.95D-06 Max=1.01D-04 NDo=     1
 LinEq1:  Iter=  4 NonCon=     1 RMS=1.49D-06 Max=2.95D-05 NDo=     1
 LinEq1:  Iter=  5 NonCon=     1 RMS=7.70D-07 Max=2.60D-05 NDo=     1
 LinEq1:  Iter=  6 NonCon=     1 RMS=5.48D-07 Max=2.26D-05 NDo=     1
 LinEq1:  Iter=  7 NonCon=     1 RMS=2.65D-07 Max=7.48D-06 NDo=     1
 LinEq1:  Iter=  8 NonCon=     1 RMS=1.13D-07 Max=2.94D-06 NDo=     1
 LinEq1:  Iter=  9 NonCon=     1 RMS=4.30D-08 Max=1.06D-06 NDo=     1
 LinEq1:  Iter= 10 NonCon=     1 RMS=2.65D-08 Max=2.27D-07 NDo=     1
 LinEq1:  Iter= 11 NonCon=     1 RMS=1.15D-08 Max=1.08D-07 NDo=     1
 LinEq1:  Iter= 12 NonCon=     1 RMS=5.64D-09 Max=7.77D-08 NDo=     1
 LinEq1:  Iter= 13 NonCon=     1 RMS=3.00D-09 Max=5.69D-08 NDo=     1
 LinEq1:  Iter= 14 NonCon=     0 RMS=1.31D-09 Max=2.79D-08 NDo=     1
 Linear equations converged to 3.807D-09 3.807D-08 after    14 iterations.
     Minimum is close to point  2 DX=  3.64D-06 DF=  0.00D+00 DXR=  3.64D-06 DFR=  0.00D+00 which will be used.
 SCF Done:  E(UB3LYP) =  -268.955745385     a.u. after    2 cycles
            Convg  =    0.3222D-07                    17 Fock formations.
              S**2 =  0.7552                  -V/T =  2.0033
 <Sx>= 0.0000 <Sy>= 0.0000 <Sz>= 0.5000 <S**2>= 0.7552 S= 0.5026
 <L.S>=  0.00000000000    
 Annihilation of the first spin contaminant:
 S**2 before annihilation     0.7552,   after     0.7500
 Calling FoFJK, ICntrl=      2127 FMM=F ISym2X=0 I1Cent= 0 IOpClX= 1 NMat=1 NMatS=1 NMatT=0.
 ***** Axes restored to original set *****
 -------------------------------------------------------------------
 Center     Atomic                   Forces (Hartrees/Bohr)
 Number     Number              X              Y              Z
 -------------------------------------------------------------------
      1        6          -0.000000004   -0.000000012   -0.000000187
      2        1           0.000000095   -0.000000081   -0.000000476
      3        1          -0.000000231    0.000000053   -0.000000186
      4        1           0.000000229   -0.000000056    0.000000007
      5        6          -0.000000138    0.000000058    0.000000010
      6        1          -0.000000386    0.000000108   -0.000000187
      7        6           0.000000169   -0.000000065   -0.000000001
      8        1           0.000000139   -0.000000065   -0.000000237
      9        1           0.000000433   -0.000000140    0.000000044
     10        8          -0.000000253    0.000000100    0.000000387
     11        8           0.000000073    0.000000012    0.000000349
     12        1          -0.000000126    0.000000087    0.000000478
 -------------------------------------------------------------------
 Cartesian Forces:  Max     0.000000478 RMS     0.000000209

 GradGradGradGradGradGradGradGradGradGradGradGradGradGradGradGradGradGrad
 Berny optimization.
 FormGI is forming the generalized inverse of G from B-inverse, IUseBI=4.
 Internal  Forces:  Max     0.000000025 RMS     0.000000007
 Search for a saddle point.
 Step number   2 out of a maximum of  100
 All quantities printed in internal units (Hartrees-Bohrs-Radians)
 Swapping is turned off.
 Update second derivatives using D2CorX and points    1    2
 ITU=  0  0
     Eigenvalues ---   -0.09272   0.00153   0.00259   0.00985   0.02756
     Eigenvalues ---    0.03393   0.04235   0.04403   0.04464   0.04702
     Eigenvalues ---    0.06456   0.06930   0.08804   0.10289   0.11388
     Eigenvalues ---    0.12306   0.14409   0.15526   0.16799   0.23475
     Eigenvalues ---    0.25037   0.28015   0.28606   0.29155   0.31538
     Eigenvalues ---    0.33282   0.33572   0.34328   0.35157   0.38859
 Eigenvectors required to have negative eigenvalues:
                          R12       R11       A20       A19       R7
   1                   -0.69244   0.69229   0.09569  -0.09124  -0.05802
                          R10       A18       D15       A11       D17
   1                    0.05435   0.04783   0.03999  -0.03946  -0.03831
 RFO step:  Lambda0=1.387778781D-17 Lambda= 0.00000000D+00.
 Linear search not attempted -- option 19 set.
 Iteration  1 RMS(Cart)=  0.00000023 RMS(Int)=  0.00000000
 Variable       Old X    -DE/DX   Delta X   Delta X   Delta X     New X
                                 (Linear)    (Quad)   (Total)
    R1        2.06774  -0.00000   0.00000  -0.00000  -0.00000   2.06774
    R2        2.06264  -0.00000   0.00000   0.00000   0.00000   2.06264
    R3        2.06474  -0.00000   0.00000  -0.00000  -0.00000   2.06474
    R4        2.87541   0.00000   0.00000   0.00000   0.00000   2.87541
    R5        2.09501  -0.00000   0.00000   0.00000   0.00000   2.09501
    R6        3.00000   0.00000   0.00000   0.00000   0.00000   3.00000
    R7        2.59367  -0.00000   0.00000  -0.00000  -0.00000   2.59367
    R8        2.07367   0.00000   0.00000   0.00000   0.00000   2.07367
    R9        2.09086  -0.00000   0.00000  -0.00000  -0.00000   2.09086
   R10        2.58638  -0.00000   0.00000  -0.00000  -0.00000   2.58638
   R11        2.28474  -0.00000   0.00000  -0.00000  -0.00000   2.28474
   R12        2.27871  -0.00000   0.00000  -0.00000  -0.00000   2.27871
    A1        1.89307   0.00000   0.00000  -0.00000  -0.00000   1.89307
    A2        1.89803  -0.00000   0.00000  -0.00000  -0.00000   1.89803
    A3        1.93137  -0.00000   0.00000  -0.00000  -0.00000   1.93137
    A4        1.88939  -0.00000   0.00000  -0.00000  -0.00000   1.88939
    A5        1.92969  -0.00000   0.00000  -0.00000  -0.00000   1.92969
    A6        1.92134   0.00000   0.00000   0.00000   0.00000   1.92134
    A7        1.91125  -0.00000   0.00000  -0.00000  -0.00000   1.91125
    A8        2.03775   0.00000   0.00000   0.00000   0.00000   2.03775
    A9        1.97971   0.00000   0.00000   0.00000   0.00000   1.97971
   A10        1.81937   0.00000   0.00000   0.00000   0.00000   1.81937
   A11        1.90421   0.00000   0.00000  -0.00000  -0.00000   1.90421
   A12        1.80069  -0.00000   0.00000  -0.00000  -0.00000   1.80069
   A13        2.01220  -0.00000   0.00000  -0.00000  -0.00000   2.01220
   A14        1.84877  -0.00000   0.00000   0.00000   0.00000   1.84877
   A15        1.82059   0.00000   0.00000   0.00000   0.00000   1.82059
   A16        1.87833   0.00000   0.00000  -0.00000  -0.00000   1.87833
   A17        1.96335  -0.00000   0.00000  -0.00000  -0.00000   1.96335
   A18        1.93789  -0.00000   0.00000  -0.00000  -0.00000   1.93789
   A19        1.63823   0.00000   0.00000   0.00000   0.00000   1.63823
   A20        1.62756  -0.00000   0.00000  -0.00000  -0.00000   1.62756
   A21        2.47694   0.00000   0.00000   0.00000   0.00000   2.47694
    D1       -1.06538   0.00000   0.00000  -0.00000  -0.00000  -1.06538
    D2        0.99570   0.00000   0.00000  -0.00000  -0.00000   0.99570
    D3        3.08616   0.00000   0.00000  -0.00000  -0.00000   3.08616
    D4        1.03245  -0.00000   0.00000  -0.00000  -0.00000   1.03245
    D5        3.09353  -0.00000   0.00000  -0.00000  -0.00000   3.09353
    D6       -1.09919  -0.00000   0.00000  -0.00000  -0.00000  -1.09919
    D7        3.11922  -0.00000   0.00000  -0.00000  -0.00000   3.11922
    D8       -1.10288  -0.00000   0.00000  -0.00000  -0.00000  -1.10288
    D9        0.98758  -0.00000   0.00000  -0.00000  -0.00000   0.98758
   D10       -1.60061   0.00000   0.00000  -0.00000  -0.00000  -1.60061
   D11        0.47425   0.00000   0.00000  -0.00000  -0.00000   0.47425
   D12        2.52077   0.00000   0.00000  -0.00000  -0.00000   2.52077
   D13        0.50975   0.00000   0.00000  -0.00000  -0.00000   0.50975
   D14        2.58461  -0.00000   0.00000  -0.00000  -0.00000   2.58461
   D15       -1.65205  -0.00000   0.00000  -0.00000  -0.00000  -1.65205
   D16        2.49881  -0.00000   0.00000  -0.00000  -0.00000   2.49881
   D17       -1.70951  -0.00000   0.00000  -0.00000  -0.00000  -1.70951
   D18        0.33701  -0.00000   0.00000  -0.00000  -0.00000   0.33701
   D19       -2.45579  -0.00000   0.00000   0.00000   0.00000  -2.45579
   D20        1.69184   0.00000   0.00000   0.00000   0.00000   1.69184
   D21       -0.23487   0.00000   0.00000   0.00000   0.00000  -0.23487
   D22       -0.24464   0.00000   0.00000   0.00000   0.00000  -0.24464
   D23       -2.43763   0.00000   0.00000   0.00000   0.00000  -2.43763
   D24        1.73931   0.00000   0.00000   0.00000   0.00000   1.73931
   D25        0.10274  -0.00000   0.00000  -0.00000  -0.00000   0.10274
   D26        0.12471   0.00000   0.00000  -0.00000  -0.00000   0.12471
         Item               Value     Threshold  Converged?
 Maximum Force            0.000000     0.000015     YES
 RMS     Force            0.000000     0.000010     YES
 Maximum Displacement     0.000001     0.000060     YES
 RMS     Displacement     0.000000     0.000040     YES
 Predicted change in Energy=-1.529834D-14
 Optimization completed.
    -- Stationary point found.
                           ----------------------------
                           !   Optimized Parameters   !
                           ! (Angstroms and Degrees)  !
 --------------------------                            --------------------------
 ! Name  Definition              Value          Derivative Info.                !
 --------------------------------------------------------------------------------
 ! R1    R(1,2)                  1.0942         -DE/DX =    0.0                 !
 ! R2    R(1,3)                  1.0915         -DE/DX =    0.0                 !
 ! R3    R(1,4)                  1.0926         -DE/DX =    0.0                 !
 ! R4    R(1,5)                  1.5216         -DE/DX =    0.0                 !
 ! R5    R(5,6)                  1.1086         -DE/DX =    0.0                 !
 ! R6    R(5,7)                  1.5875         -DE/DX =    0.0                 !
 ! R7    R(5,10)                 1.3725         -DE/DX =    0.0                 !
 ! R8    R(7,8)                  1.0973         -DE/DX =    0.0                 !
 ! R9    R(7,9)                  1.1064         -DE/DX =    0.0                 !
 ! R10   R(7,11)                 1.3687         -DE/DX =    0.0                 !
 ! R11   R(10,12)                1.209          -DE/DX =    0.0                 !
 ! R12   R(11,12)                1.2058         -DE/DX =    0.0                 !
 ! A1    A(2,1,3)              108.4649         -DE/DX =    0.0                 !
 ! A2    A(2,1,4)              108.7488         -DE/DX =    0.0                 !
 ! A3    A(2,1,5)              110.6593         -DE/DX =    0.0                 !
 ! A4    A(3,1,4)              108.2543         -DE/DX =    0.0                 !
 ! A5    A(3,1,5)              110.563          -DE/DX =    0.0                 !
 ! A6    A(4,1,5)              110.0848         -DE/DX =    0.0                 !
 ! A7    A(1,5,6)              109.5064         -DE/DX =    0.0                 !
 ! A8    A(1,5,7)              116.7542         -DE/DX =    0.0                 !
 ! A9    A(1,5,10)             113.4291         -DE/DX =    0.0                 !
 ! A10   A(6,5,7)              104.2422         -DE/DX =    0.0                 !
 ! A11   A(6,5,10)             109.103          -DE/DX =    0.0                 !
 ! A12   A(7,5,10)             103.172          -DE/DX =    0.0                 !
 ! A13   A(5,7,8)              115.2906         -DE/DX =    0.0                 !
 ! A14   A(5,7,9)              105.9265         -DE/DX =    0.0                 !
 ! A15   A(5,7,11)             104.312          -DE/DX =    0.0                 !
 ! A16   A(8,7,9)              107.6203         -DE/DX =    0.0                 !
 ! A17   A(8,7,11)             112.4915         -DE/DX =    0.0                 !
 ! A18   A(9,7,11)             111.0327         -DE/DX =    0.0                 !
 ! A19   A(5,10,12)             93.8634         -DE/DX =    0.0                 !
 ! A20   A(7,11,12)             93.2523         -DE/DX =    0.0                 !
 ! A21   A(10,12,11)           141.9185         -DE/DX =    0.0                 !
 ! D1    D(2,1,5,6)            -61.0419         -DE/DX =    0.0                 !
 ! D2    D(2,1,5,7)             57.0495         -DE/DX =    0.0                 !
 ! D3    D(2,1,5,10)           176.8241         -DE/DX =    0.0                 !
 ! D4    D(3,1,5,6)             59.1551         -DE/DX =    0.0                 !
 ! D5    D(3,1,5,7)            177.2465         -DE/DX =    0.0                 !
 ! D6    D(3,1,5,10)           -62.9789         -DE/DX =    0.0                 !
 ! D7    D(4,1,5,6)            178.7182         -DE/DX =    0.0                 !
 ! D8    D(4,1,5,7)            -63.1905         -DE/DX =    0.0                 !
 ! D9    D(4,1,5,10)            56.5841         -DE/DX =    0.0                 !
 ! D10   D(1,5,7,8)            -91.7083         -DE/DX =    0.0                 !
 ! D11   D(1,5,7,9)             27.1727         -DE/DX =    0.0                 !
 ! D12   D(1,5,7,11)           144.4298         -DE/DX =    0.0                 !
 ! D13   D(6,5,7,8)             29.2065         -DE/DX =    0.0                 !
 ! D14   D(6,5,7,9)            148.0875         -DE/DX =    0.0                 !
 ! D15   D(6,5,7,11)           -94.6555         -DE/DX =    0.0                 !
 ! D16   D(10,5,7,8)           143.1711         -DE/DX =    0.0                 !
 ! D17   D(10,5,7,9)           -97.9479         -DE/DX =    0.0                 !
 ! D18   D(10,5,7,11)           19.3091         -DE/DX =    0.0                 !
 ! D19   D(1,5,10,12)         -140.7066         -DE/DX =    0.0                 !
 ! D20   D(6,5,10,12)           96.9355         -DE/DX =    0.0                 !
 ! D21   D(7,5,10,12)          -13.457          -DE/DX =    0.0                 !
 ! D22   D(5,7,11,12)          -14.017          -DE/DX =    0.0                 !
 ! D23   D(8,7,11,12)         -139.6661         -DE/DX =    0.0                 !
 ! D24   D(9,7,11,12)           99.6554         -DE/DX =    0.0                 !
 ! D25   D(5,10,12,11)           5.8868         -DE/DX =    0.0                 !
 ! D26   D(7,11,12,10)           7.1454         -DE/DX =    0.0                 !
 --------------------------------------------------------------------------------
 GradGradGradGradGradGradGradGradGradGradGradGradGradGradGradGradGradGrad

                          Input orientation:                          
 ---------------------------------------------------------------------
 Center     Atomic      Atomic             Coordinates (Angstroms)
 Number     Number       Type             X           Y           Z
 ---------------------------------------------------------------------
      1          6           0       -4.149085    2.061747   -0.087041
      2          1           0       -5.175528    2.187489   -0.444635
      3          1           0       -3.937595    2.847803    0.640124
      4          1           0       -3.465818    2.183351   -0.930942
      5          6           0       -3.964002    0.688423    0.541453
      6          1           0       -4.644864    0.584054    1.410127
      7          6           0       -4.300077   -0.566339   -0.371169
      8          1           0       -5.330954   -0.935523   -0.299436
      9          1           0       -4.134337   -0.236278   -1.414139
     10          8           0       -2.676217    0.443432    0.948120
     11          8           0       -3.379348   -1.509377   -0.002190
     12          1           0       -2.694340   -0.709849    0.585668
 ---------------------------------------------------------------------
                    Distance matrix (angstroms):
                    1          2          3          4          5
     1  C    0.000000
     2  H    1.094199   0.000000
     3  H    1.091504   1.773470   0.000000
     4  H    1.092616   1.777532   1.769835   0.000000
     5  C    1.521604   2.165032   2.161794   2.156605   0.000000
     6  H    2.161223   2.508536   2.493530   3.070587   1.108629
     7  C    2.647708   2.890568   3.579172   2.927478   1.587530
     8  H    3.228862   3.130247   4.139779   3.688483   2.283166
     9  H    2.653737   2.810457   3.710830   2.556365   2.169891
    10  O    2.420711   3.350830   2.732569   2.679862   1.372512
    11  O    3.654123   4.133865   4.439507   3.808714   2.338310
    12  H    3.201650   3.951252   3.769024   3.356471   1.889223
                    6          7          8          9         10
     6  H    0.000000
     7  C    2.148325   0.000000
     8  H    2.387978   1.097337   0.000000
     9  H    2.984972   1.106433   1.778594   0.000000
    10  O    2.027017   2.323162   3.241225   2.858039   0.000000
    11  O    2.824646   1.368652   2.055828   2.045577   2.282750
    12  H    2.481625   1.874707   2.790353   2.509400   1.209032
                   11         12
    11  O    0.000000
    12  H    1.205844   0.000000
 Stoichiometry    C3H7O2(2)
 Framework group  C1[X(C3H7O2)]
 Deg. of freedom    30
 Full point group                 C1      NOp   1
 Largest Abelian subgroup         C1      NOp   1
 Largest concise Abelian subgroup C1      NOp   1
                         Standard orientation:                         
 ---------------------------------------------------------------------
 Center     Atomic      Atomic             Coordinates (Angstroms)
 Number     Number       Type             X           Y           Z
 ---------------------------------------------------------------------
      1          6           0       -1.837405   -0.340950   -0.177093
      2          1           0       -2.100922   -1.350875    0.151362
      3          1           0       -2.612629    0.347114    0.164926
      4          1           0       -1.819218   -0.320438   -1.269365
      5          6           0       -0.479565    0.066224    0.375862
      6          1           0       -0.515459    0.064532    1.483909
      7          6           0        0.747685   -0.877113    0.023405
      8          1           0        0.954275   -1.669997    0.753340
      9          1           0        0.490523   -1.364057   -0.936255
     10          8           0       -0.061025    1.299220   -0.058113
     11          8           0        1.802088   -0.017882   -0.128793
     12          1           0        1.090641    0.954054   -0.185719
 ---------------------------------------------------------------------
 Rotational constants (GHZ):           9.5434024           3.9851280           3.0773597

 **********************************************************************

            Population analysis using the SCF density.

 **********************************************************************

 Orbital symmetries:
 Alpha Orbitals:
       Occupied  (A) (A) (A) (A) (A) (A) (A) (A) (A) (A) (A) (A)
                 (A) (A) (A) (A) (A) (A) (A) (A) (A)
       Virtual   (A) (A) (A) (A) (A) (A) (A) (A) (A) (A) (A) (A)
                 (A) (A) (A) (A) (A) (A) (A) (A) (A) (A) (A) (A)
                 (A) (A) (A) (A) (A) (A) (A) (A) (A) (A) (A) (A)
                 (A) (A) (A) (A) (A) (A) (A) (A) (A) (A) (A) (A)
                 (A) (A) (A) (A) (A) (A) (A) (A) (A) (A) (A) (A)
                 (A) (A) (A) (A) (A) (A) (A) (A) (A) (A) (A) (A)
                 (A) (A) (A) (A) (A) (A) (A) (A) (A) (A) (A) (A)
                 (A) (A) (A) (A) (A) (A) (A) (A) (A) (A) (A) (A)
                 (A) (A) (A) (A) (A) (A) (A) (A) (A) (A) (A) (A)
                 (A) (A) (A)
 Beta  Orbitals:
       Occupied  (A) (A) (A) (A) (A) (A) (A) (A) (A) (A) (A) (A)
                 (A) (A) (A) (A) (A) (A) (A) (A)
       Virtual   (A) (A) (A) (A) (A) (A) (A) (A) (A) (A) (A) (A)
                 (A) (A) (A) (A) (A) (A) (A) (A) (A) (A) (A) (A)
                 (A) (A) (A) (A) (A) (A) (A) (A) (A) (A) (A) (A)
                 (A) (A) (A) (A) (A) (A) (A) (A) (A) (A) (A) (A)
                 (A) (A) (A) (A) (A) (A) (A) (A) (A) (A) (A) (A)
                 (A) (A) (A) (A) (A) (A) (A) (A) (A) (A) (A) (A)
                 (A) (A) (A) (A) (A) (A) (A) (A) (A) (A) (A) (A)
                 (A) (A) (A) (A) (A) (A) (A) (A) (A) (A) (A) (A)
                 (A) (A) (A) (A) (A) (A) (A) (A) (A) (A) (A) (A)
                 (A) (A) (A) (A)
 The electronic state is 2-A.
 Alpha  occ. eigenvalues --  -19.14198 -19.14108 -10.24306 -10.23593 -10.17911
 Alpha  occ. eigenvalues --   -1.07620  -1.00069  -0.77473  -0.68618  -0.59459
 Alpha  occ. eigenvalues --   -0.54215  -0.51072  -0.47083  -0.44587  -0.42252
 Alpha  occ. eigenvalues --   -0.41177  -0.39344  -0.33250  -0.33113  -0.30183
 Alpha  occ. eigenvalues --   -0.28932
 Alpha virt. eigenvalues --    0.03517   0.06453   0.07437   0.09433   0.10566
 Alpha virt. eigenvalues --    0.11738   0.11850   0.18298   0.18833   0.21325
 Alpha virt. eigenvalues --    0.24777   0.29123   0.31100   0.34210   0.35299
 Alpha virt. eigenvalues --    0.39610   0.44921   0.46654   0.47647   0.50777
 Alpha virt. eigenvalues --    0.52980   0.53732   0.54925   0.56150   0.57813
 Alpha virt. eigenvalues --    0.58688   0.62356   0.69052   0.74144   0.76616
 Alpha virt. eigenvalues --    0.80200   0.85655   0.89389   0.93853   0.95555
 Alpha virt. eigenvalues --    1.00569   1.01004   1.05272   1.16577   1.26750
 Alpha virt. eigenvalues --    1.31017   1.36604   1.40965   1.43878   1.44993
 Alpha virt. eigenvalues --    1.45888   1.49339   1.50469   1.51443   1.55407
 Alpha virt. eigenvalues --    1.57579   1.59245   1.61231   1.63951   1.66410
 Alpha virt. eigenvalues --    1.69610   1.75740   1.81458   1.82159   1.85907
 Alpha virt. eigenvalues --    1.91633   1.95264   2.03910   2.05394   2.09881
 Alpha virt. eigenvalues --    2.12469   2.19558   2.30042   2.34466   2.35610
 Alpha virt. eigenvalues --    2.39455   2.43671   2.45679   2.47594   2.49652
 Alpha virt. eigenvalues --    2.53105   2.55492   2.61779   2.67817   2.71285
 Alpha virt. eigenvalues --    2.74988   2.78912   2.86834   2.97221   3.02856
 Alpha virt. eigenvalues --    3.05404   3.14004   3.16290   3.20045   3.24627
 Alpha virt. eigenvalues --    3.32959   3.48306   3.64319   3.73222   3.79101
 Alpha virt. eigenvalues --    3.79173   3.89665   3.95990   4.03116   4.26055
 Alpha virt. eigenvalues --    4.82051   4.87408   5.03906   5.33207   5.43395
 Alpha virt. eigenvalues --    5.60390  23.70388  23.77336  23.90317  49.84306
 Alpha virt. eigenvalues --   49.89035
  Beta  occ. eigenvalues --  -19.13082 -19.12993 -10.24273 -10.23561 -10.17884
  Beta  occ. eigenvalues --   -1.05618  -0.97547  -0.76856  -0.67938  -0.58354
  Beta  occ. eigenvalues --   -0.53521  -0.49882  -0.45972  -0.43158  -0.41828
  Beta  occ. eigenvalues --   -0.39998  -0.38291  -0.32356  -0.29370  -0.26051
  Beta virt. eigenvalues --   -0.17981   0.03710   0.06711   0.07607   0.09624
  Beta virt. eigenvalues --    0.10764   0.11966   0.12145   0.18699   0.19239
  Beta virt. eigenvalues --    0.21522   0.25155   0.29379   0.31315   0.35007
  Beta virt. eigenvalues --    0.35588   0.40068   0.45314   0.47299   0.48130
  Beta virt. eigenvalues --    0.51337   0.53508   0.53899   0.55255   0.56289
  Beta virt. eigenvalues --    0.57966   0.58829   0.62522   0.69217   0.74734
  Beta virt. eigenvalues --    0.78053   0.81409   0.86428   0.90692   0.94478
  Beta virt. eigenvalues --    0.96439   1.00927   1.01768   1.05882   1.16965
  Beta virt. eigenvalues --    1.27162   1.31289   1.37039   1.41211   1.43938
  Beta virt. eigenvalues --    1.45444   1.46667   1.49689   1.51109   1.51834
  Beta virt. eigenvalues --    1.55636   1.58153   1.59832   1.61756   1.64799
  Beta virt. eigenvalues --    1.66904   1.70107   1.76167   1.82006   1.82607
  Beta virt. eigenvalues --    1.86287   1.92280   1.95968   2.04552   2.05719
  Beta virt. eigenvalues --    2.10229   2.13159   2.20040   2.30766   2.34796
  Beta virt. eigenvalues --    2.35753   2.39913   2.43937   2.46225   2.47964
  Beta virt. eigenvalues --    2.49826   2.53465   2.55802   2.62160   2.68477
  Beta virt. eigenvalues --    2.72149   2.75526   2.79771   2.89518   2.98256
  Beta virt. eigenvalues --    3.03949   3.08128   3.15938   3.18016   3.20972
  Beta virt. eigenvalues --    3.26591   3.34187   3.50691   3.65410   3.74672
  Beta virt. eigenvalues --    3.79223   3.79411   3.90505   3.96746   4.03566
  Beta virt. eigenvalues --    4.26241   4.86747   4.92078   5.04893   5.34248
  Beta virt. eigenvalues --    5.44369   5.61273  23.70429  23.77371  23.90347
  Beta virt. eigenvalues --   49.85428  49.90155
          Condensed to atoms (all electrons):
               1          2          3          4          5          6
     1  C    4.963384   0.374324   0.401906   0.385314   0.322331  -0.054919
[...]
  Beta virt. eigenvalues --    4.42810   4.46597   4.48321   4.53381   4.57291
  Beta virt. eigenvalues --    4.60223   4.60963   4.68908   4.69658   4.73125
  Beta virt. eigenvalues --    4.76359   4.78024   4.81484   4.82611   4.88477
  Beta virt. eigenvalues --    4.89275   4.96673   4.98165   5.23120   5.42476
  Beta virt. eigenvalues --    5.58841   5.60126   5.62482   5.67973   5.69408
  Beta virt. eigenvalues --    5.70475   5.75506   5.77701   5.78447   5.80307
  Beta virt. eigenvalues --    5.82244   5.84168   5.91004   5.97536   6.04659
  Beta virt. eigenvalues --    6.05076   6.07428   6.11247   6.32460   6.34324
  Beta virt. eigenvalues --    6.44452   6.46574   7.00381   7.11346   7.22373
  Beta virt. eigenvalues --    7.39396   7.63059   7.74452   7.76111   7.83175
  Beta virt. eigenvalues --    7.88240   8.01594   8.04987   8.30957   8.40485
  Beta virt. eigenvalues --   25.42031  25.54819  25.56381  51.67621  51.83077
          Condensed to atoms (all electrons):
               1          2          3          4          5          6
     1  C    4.966081   0.403240   0.417971   0.420758   0.186968  -0.046364
     2  H    0.403240   0.599381  -0.032637  -0.026123  -0.031884  -0.003466
     3  H    0.417971  -0.032637   0.611224  -0.027223  -0.035292  -0.006175
     4  H    0.420758  -0.026123  -0.027223   0.604361  -0.043140  -0.000304
     5  C    0.186968  -0.031884  -0.035292  -0.043140   5.006358   0.468796
     6  H   -0.046364  -0.003466  -0.006175  -0.000304   0.468796   0.580697
     7  C   -0.012867   0.019879  -0.004606   0.002769   0.200306  -0.056603
     8  H   -0.021847   0.002435  -0.000162   0.004034  -0.042289  -0.012267
     9  H    0.049949  -0.010879  -0.000882  -0.010912  -0.028153   0.011101
    10  O   -0.108834   0.007810  -0.002317  -0.001400   0.291290  -0.028586
    11  O    0.012291   0.000273  -0.000904  -0.001799  -0.068661  -0.006721
    12  H   -0.003886  -0.000466  -0.000181   0.000029  -0.046335  -0.002390
               7          8          9         10         11         12
     1  C   -0.012867  -0.021847   0.049949  -0.108834   0.012291  -0.003886
     2  H    0.019879   0.002435  -0.010879   0.007810   0.000273  -0.000466
     3  H   -0.004606  -0.000162  -0.000882  -0.002317  -0.000904  -0.000181
     4  H    0.002769   0.004034  -0.010912  -0.001400  -0.001799   0.000029
     5  C    0.200306  -0.042289  -0.028153   0.291290  -0.068661  -0.046335
     6  H   -0.056603  -0.012267   0.011101  -0.028586  -0.006721  -0.002390
     7  C    4.978127   0.507529   0.322639  -0.076580   0.197271  -0.043224
     8  H    0.507529   0.665089  -0.088064   0.006054  -0.062469   0.012849
     9  H    0.322639  -0.088064   0.776160  -0.012160  -0.065910   0.001319
    10  O   -0.076580   0.006054  -0.012160   7.942076  -0.084418   0.094025
    11  O    0.197271  -0.062469  -0.065910  -0.084418   8.357542   0.292105
    12  H   -0.043224   0.012849   0.001319   0.094025   0.292105   0.364276
          Atomic-Atomic Spin Densities.
               1          2          3          4          5          6
     1  C    0.067602  -0.000535   0.004764   0.003254  -0.038404  -0.035888
     2  H   -0.000535  -0.002440  -0.000781  -0.000000   0.004278   0.001107
     3  H    0.004764  -0.000781  -0.001508  -0.000025  -0.002798  -0.002786
     4  H    0.003254  -0.000000  -0.000025  -0.002379  -0.004075  -0.000994
     5  C   -0.038404   0.004278  -0.002798  -0.004075  -0.081074   0.041199
     6  H   -0.035888   0.001107  -0.002786  -0.000994   0.041199   0.141485
     7  C    0.038622  -0.002312   0.000550   0.000100   0.008609  -0.022681
     8  H    0.011950  -0.000616   0.000403   0.000227  -0.005885  -0.009331
     9  H   -0.021630   0.001303  -0.000498   0.000190   0.010669   0.008574
    10  O   -0.016216  -0.000403  -0.000939   0.000589  -0.021838  -0.022033
    11  O   -0.002037   0.000089   0.000002  -0.000013  -0.001342   0.004104
    12  H    0.002717  -0.000092   0.000030   0.000195  -0.005218   0.000426
               7          8          9         10         11         12
     1  C    0.038622   0.011950  -0.021630  -0.016216  -0.002037   0.002717
     2  H   -0.002312  -0.000616   0.001303  -0.000403   0.000089  -0.000092
     3  H    0.000550   0.000403  -0.000498  -0.000939   0.000002   0.000030
     4  H    0.000100   0.000227   0.000190   0.000589  -0.000013   0.000195
     5  C    0.008609  -0.005885   0.010669  -0.021838  -0.001342  -0.005218
     6  H   -0.022681  -0.009331   0.008574  -0.022033   0.004104   0.000426
     7  C    0.002396  -0.000354   0.004365  -0.020049   0.001019   0.003501
     8  H   -0.000354   0.000865  -0.003781  -0.001439   0.000466   0.001049
     9  H    0.004365  -0.003781   0.005257   0.007188  -0.003201  -0.000617
    10  O   -0.020049  -0.001439   0.007188   1.088729  -0.000110  -0.029301
    11  O    0.001019   0.000466  -0.003201  -0.000110   0.001935   0.001653
    12  H    0.003501   0.001049  -0.000617  -0.029301   0.001653   0.009192
 Mulliken charges and spin densities:
               1          2
     1  C   -0.263461   0.014200
     2  H    0.072437  -0.000402
     3  H    0.081184  -0.003587
     4  H    0.078951  -0.002932
     5  C    0.142035  -0.095878
     6  H    0.102281   0.103183
     7  C   -0.034640   0.013765
     8  H    0.029107  -0.006445
     9  H    0.055791   0.007819
    10  O   -0.026961   0.984178
    11  O   -0.568601   0.002565
    12  H    0.331877  -0.016465
 Sum of Mulliken charges =   0.00000   1.00000
 Mulliken charges and spin densities with hydrogens summed into heavy atoms:
               1          2
     1  C   -0.030889   0.007279
     5  C    0.244317   0.007305
     7  C    0.050258   0.015139
    10  O   -0.026961   0.984178
    11  O   -0.236724  -0.013900
 Electronic spatial extent (au):  <R**2>=            434.7670
 Charge=              0.0000 electrons
 Dipole moment (field-independent basis, Debye):
    X=             -4.2365    Y=             -0.2862    Z=              0.8550  Tot=              4.3314
 Quadrupole moment (field-independent basis, Debye-Ang):
   XX=            -38.5840   YY=            -30.4826   ZZ=            -29.8420
   XY=              1.0894   XZ=              0.4052   YZ=             -0.3171
 Traceless Quadrupole moment (field-independent basis, Debye-Ang):
   XX=             -5.6145   YY=              2.4869   ZZ=              3.1275
   XY=              1.0894   XZ=              0.4052   YZ=             -0.3171
 Octapole moment (field-independent basis, Debye-Ang**2):
  XXX=            -18.5508  YYY=              3.5314  ZZZ=              0.7505  XYY=              4.1335
  XXY=              2.1625  XXZ=              1.4877  XZZ=             -0.3371  YZZ=              2.1561
  YYZ=              1.1180  XYZ=             -0.7264
 Hexadecapole moment (field-independent basis, Debye-Ang**3):
 XXXX=           -387.7094 YYYY=           -145.3841 ZZZZ=            -54.4360 XXXY=              0.6016
 XXXZ=              0.4992 YYYX=              4.1415 YYYZ=             -1.8524 ZZZX=              0.4339
 ZZZY=             -0.6798 XXYY=            -76.2192 XXZZ=            -70.2655 YYZZ=            -32.8736
 XXYZ=             -1.3170 YYXZ=             -0.8941 ZZXY=             -0.3915
 N-N= 1.892329824558D+02 E-N=-1.007245897495D+03  KE= 2.672216421765D+02
 1\1\GINC-SHAS0558\SP\UMP2-FC\CBSB3\C3H7O2(2)\JASM3285\08-Feb-2018\0\\#
 N Geom=AllCheck Guess=TCheck SCRF=Check MP2/CBSB3 CBSExtrap=(NMin=10,M
 inPop)\\Title Card Required\\0,2\C,0,-4.1490846026,2.0617465604,-0.087
 0412615\H,0,-5.175528092,2.187489389,-0.4446347122\H,0,-3.9375947148,2
 .8478028237,0.6401239291\H,0,-3.465817704,2.1833513607,-0.9309418038\C
 ,0,-3.9640023963,0.6884228463,0.5414532609\H,0,-4.6448635885,0.5840541
 381,1.4101272886\C,0,-4.3000769154,-0.5663387151,-0.3711694957\H,0,-5.
 3309535224,-0.9355226658,-0.2994360166\H,0,-4.1343369794,-0.236278204,
 -1.4141385743\O,0,-2.6762167198,0.443431904,0.948119897\O,0,-3.3793482
 189,-1.509377017,-0.0021903963\H,0,-2.6943395458,-0.7098494203,0.58566
 78849\\Version=ES64L-G16RevA.03\State=2-A\HF=-267.3755988\MP2=-268.332
 6711\E2(CBS)=-1.0544455\CBS-Int=-1.0236572\OIii=8.2273063\PUHF=-267.38
 00669\PMP2-0=-268.3354893\S2=0.762817\S2-1=0.753295\S2A=0.750128\RMSD=
 2.455e-09\PG=C01 [X(C3H7O2)]\\@


            ARSENIC

 FOR SMELTER FUMES HAVE I BEEN NAMED,
    I AM AN EVIL POISONOUS SMOKE...
 BUT WHEN FROM POISON I AM FREED,
    THROUGH ART AND SLEIGHT OF HAND,
 THEN CAN I CURE BOTH MAN AND BEAST,
    FROM DIRE DISEASE OFTTIMES DIRECT THEM;
 BUT PREPARE ME CORRECTLY, AND TAKE GREAT CARE
    THAT YOU FAITHFULLY KEEP WATCHFUL GUARD OVER ME;
 FOR ELSE I AM POISON, AND POISON REMAIN,
    THAT PIERCES THE HEART OF MANY A ONE.

 ATTRIBUTED TO THE PROBABLY MYTHICAL 15TH
 CENTURY MONK, BASILIUS VALENTINUS
 Diagonal vibrational polarizability:
        0.0000000       0.0000000       0.0000000
    1 imaginary frequencies ignored.

 Complete Basis Set (CBS) Extrapolation:
 M. R. Nyden and G. A. Petersson, JCP 75, 1843 (1981)
 G. A. Petersson and M. A. Al-Laham, JCP 94, 6081 (1991)
 G. A. Petersson, T. Tensfeldt, and J. A. Montgomery, JCP 94, 6091 (1991)
 J. A. Montgomery, J. W. Ochterski, and G. A. Petersson, JCP 101, 5900 (1994)

 Temperature=               298.150000 Pressure=                       1.000000
 E(ZPE)=                      0.092981 E(Thermal)=                     0.098428
 E(SCF)=                   -267.375599 DE(MP2)=                       -0.957072
 DE(CBS)=                    -0.097373 DE(MP34)=                      -0.050682
 DE(CCSD)=                   -0.038326 DE(Int)=                        0.030788
 DE(Empirical)=              -0.047758
 CBS-QB3 (0 K)=            -268.443041 CBS-QB3 Energy=              -268.437594
 CBS-QB3 Enthalpy=         -268.436650 CBS-QB3 Free Energy=         -268.472248
 1\1\GINC-SHAS0558\Mixed\CBS-QB3\CBS-QB3\C3H7O2(2)\JASM3285\08-Feb-2018
 \0\\# opt=(calcfc,tight,ts,noeigentest) freq cbs-qb3 scf=qc geom=conne
 ctivity ccsd=maxcyc=1000 optcyc=100\\Title Card Required\\0,2\C,0,-4.1
 490846026,2.0617465604,-0.0870412615\H,0,-5.175528092,2.187489389,-0.4
 446347122\H,0,-3.9375947148,2.8478028237,0.6401239291\H,0,-3.465817704
 ,2.1833513607,-0.9309418038\C,0,-3.9640023963,0.6884228463,0.541453260
 9\H,0,-4.6448635885,0.5840541381,1.4101272886\C,0,-4.3000769154,-0.566
 3387151,-0.3711694957\H,0,-5.3309535224,-0.9355226658,-0.2994360166\H,
 0,-4.1343369794,-0.236278204,-1.4141385743\O,0,-2.6762167198,0.4434319
 04,0.948119897\O,0,-3.3793482189,-1.509377017,-0.0021903963\H,0,-2.694
 3395458,-0.7098494203,0.5856678849\\Version=ES64L-G16RevA.03\State=2-A
 \HF/CbsB3=-267.3755988\E2(CBS)/CbsB3=-1.0544455\CBS-Int/CbsB3=0.030788
 3\OIii/CbsB3=8.2273063\MP2/CbsB4=-268.0943078\MP4(SDQ)/CbsB4=-268.1449
 9\MP4(SDQ)/6-31+G(d')=-268.0734723\QCISD(T)/6-31+G(d')=-268.1117984\CB
 SQB3=-268.4430414\FreqCoord=-7.8406335666,3.8961363374,-0.1644841457,-
 9.7803306439,4.1337558456,-0.8402378315,-7.4409756006,5.3815673935,1.2
 096589118,-6.5494462583,4.1259361055,-1.7592250472,-7.4908788861,1.300
 9306373,1.0231983723,-8.7775200681,1.1037023629,2.6647543762,-8.125967
 6847,-1.0702250652,-0.7014086926,-10.0740421402,-1.7678816216,-0.56585
 20632,-7.8127645978,-0.4465010948,-2.6723346076,-5.0573166503,0.837964
 8534,1.7916869386,-6.3860426133,-2.8523091808,-0.0041392492,-5.0915638
 281,-1.3414209941,1.1067519024\PG=C01 [X(C3H7O2)]\NImag=1\\0.56714586,
 0.01182922,0.48203401,-0.00644971,0.04017955,0.54869803,-0.27575078,0.
 02615171,-0.07911965,0.29928071,0.02534578,-0.05011287,0.01012321,-0.0
 2977620,0.05269848,-0.07838361,0.00991205,-0.07434983,0.08787505,-0.01
 177132,0.07628704,-0.05632951,-0.03798805,-0.03441789,-0.00509762,-0.0
 2249508,-0.02010740,0.05645931,-0.03679521,-0.18093452,-0.12803729,0.0
 0030647,0.00373971,0.00356591,0.04098919,0.19821676,-0.03466807,-0.128
 84398,-0.16870763,-0.00110367,-0.00627418,-0.00690848,0.03811525,0.138
 69251,0.18011939,-0.15103253,-0.01689143,0.12843830,-0.01689632,-0.003
 28328,0.02338728,0.00441094,0.00138507,-0.00587352,0.16006065,-0.01521
 394,-0.04914713,0.01916251,0.00209908,-0.00096928,-0.00365177,0.015686
 14,0.00295296,-0.01713499,0.01832629,0.05423534,0.12753973,0.01947144,
 -0.20345654,-0.00716045,-0.00186427,0.00982511,0.01375076,0.00264432,-
 0.01605621,-0.14084842,-0.02374463,0.21887959,-0.06529148,0.00005543,-
 0.00509158,-0.00242100,0.02742912,-0.01229942,-0.00075841,-0.00708245,
 0.00365160,0.00049896,-0.01937209,0.00650441,0.43791127,-0.00211251,-0
 .16358835,0.04181198,-0.00078554,-0.00122240,-0.00128186,0.00329849,-0
 .02420560,0.01187802,0.00046100,-0.00581420,0.00202169,-0.06846732,0.4
 4650544,-0.00253521,0.04474273,-0.09547305,0.00151555,0.00679322,-0.00
 518459,0.00321006,-0.02081694,0.01014024,-0.00437668,0.02452208,-0.011
 49745,-0.05299467,-0.07161299,0.44068017,0.00208900,0.00033429,-0.0012
 6163,0.00011351,-0.00010331,0.00027503,-0.00004099,-0.00043866,0.00018
 447,0.00098482,0.00068724,-0.00016365,-0.09611453,-0.01161395,0.112686
 48,0.14052432,-0.01768333,-0.00852127,0.02553712,0.00044241,0.00153207
 ,-0.00066878,-0.00043054,0.00101198,-0.00039370,0.00078320,-0.00514483
 ,0.00255146,-0.00215249,-0.03161182,0.02327968,0.01132672,0.05074487,0
 .00910290,0.00234726,-0.01135513,-0.00047405,-0.00018550,0.00012300,-0
 .00030147,-0.00014583,0.00106405,-0.00059053,0.00276169,-0.00019603,0.
 10648738,0.02463693,-0.17867165,-0.11836768,-0.02101296,0.19836881,0.0
 0117012,0.00109746,0.00306402,0.00023688,0.00039425,0.00004935,0.00091
 176,0.00078599,-0.00079140,0.00012146,-0.00048409,-0.00102008,-0.07400
 601,-0.00316879,0.01743932,0.00480196,0.01350218,0.00748882,0.58936710
 ,-0.00007218,-0.01683271,-0.00729843,0.00001709,0.00008893,0.00059696,
 0.00007353,-0.00003152,0.00151203,-0.00025386,0.00118851,0.00049921,0.
 03322418,-0.04731841,-0.00205778,-0.00789905,-0.01754512,-0.00919783,0
 .03837571,0.33258925,0.00929318,0.00463003,0.01360034,-0.00010459,-0.0
 0142574,0.00079810,-0.00076054,0.00597724,-0.00152984,0.00017378,0.001
 61078,-0.00002665,-0.01594029,0.00388698,-0.07971007,-0.00046611,-0.02
 343431,-0.01926961,0.00420220,-0.07246554,0.45239667,0.00005459,0.0000
 7063,-0.00030294,0.00007829,-0.00044732,0.00020486,-0.00001147,-0.0000
 9020,0.00001050,0.00005869,0.00006539,0.00007015,-0.00106661,-0.001786
 37,-0.00130261,0.00041445,-0.00036594,0.00010846,-0.25257978,-0.088355
 41,0.02219308,0.28966235,-0.00210367,-0.00246261,-0.00283655,0.0000033
 9,0.00044627,-0.00022704,0.00050737,-0.00100582,0.00011901,0.00024802,
 0.00025087,-0.00025666,-0.01281129,0.00147742,0.01106722,-0.00091744,0
 .00072326,-0.00022120,-0.08863934,-0.08349578,0.00897726,0.08655180,0.
 08342929,-0.00090109,-0.00117886,-0.00220044,-0.00019707,0.00046954,-0
 .00009008,0.00005886,-0.00071423,0.00031427,0.00005133,0.00005592,0.00
 016448,-0.01090334,-0.00244662,0.00480850,-0.00093027,0.00014343,0.000
 19694,0.02550915,0.00540962,-0.04384899,-0.01737999,-0.01218323,0.0481
 8061,0.00061144,0.00092773,0.00036697,-0.00009081,-0.00006947,0.000270
 46,-0.00017259,0.00037785,-0.00014054,-0.00012176,-0.00034995,0.000042
 21,-0.00081219,-0.00212936,-0.01107136,0.00110158,0.00045027,0.0012157
 1,-0.04663975,-0.01148955,0.04379514,-0.00601534,-0.00985938,0.0265630
 6,0.05419923,0.00040190,0.00041729,-0.00146766,0.00007133,-0.00024072,
 -0.00000294,0.00003421,0.00029046,0.00011030,-0.00034602,-0.00027876,0
 .00003051,-0.00925363,-0.00711084,-0.02705179,0.00050162,0.00158453,-0
 .00105246,-0.01970449,-0.03435524,0.06203706,-0.00448108,-0.00209463,0
 .01212758,0.01008585,0.06564454,0.00037607,0.00269940,0.00063275,0.000
 35963,-0.00040931,0.00001875,-0.00006691,0.00001196,0.00037740,-0.0003
 7038,-0.00055485,0.00049870,0.00053004,-0.00482742,-0.02319771,-0.0007
 1902,-0.00062559,-0.00117608,0.04723353,0.06215835,-0.23621641,0.00121
 591,0.00060883,-0.00377436,-0.03850480,-0.07395927,0.26944682,-0.02024
 213,0.01620730,-0.00628481,0.00074285,0.00212914,-0.00079914,0.0008653
 0,0.00006645,0.00077136,0.00172091,-0.00176319,0.00085153,-0.20408038,
 0.02197425,-0.06360291,-0.04826167,0.00097244,-0.00203133,-0.03033739,
 -0.03809442,-0.01776627,0.00109193,-0.00385595,-0.00338944,-0.00018100
 ,0.00589372,0.00154667,0.34337958,0.03856235,-0.01195490,0.00876252,0.
 00070777,-0.00536596,0.00365378,0.00004304,0.00188872,-0.00071870,0.00
 055419,0.00347125,-0.00161225,0.02449593,-0.08827746,0.02679258,0.0010
 6628,0.00578779,-0.00597208,-0.01773750,0.00469688,0.00003123,0.000965
 05,-0.00519828,-0.00542083,0.00302775,-0.00885489,-0.00126189,0.002763
 78,0.14218315,-0.02004540,0.00127830,-0.00646568,-0.00177606,0.0045731
 4,-0.00038798,0.00032106,-0.00045650,0.00094646,0.00026461,-0.00223408
 ,0.00148262,-0.02914182,0.02133493,-0.06623962,0.00981630,-0.00567782,
 0.00883456,-0.03603568,-0.03164917,-0.00923909,0.00111562,-0.00658120,
 -0.00450529,0.00352730,0.00448611,0.00489290,0.10191040,0.01566024,0.1
 0299830,0.00132118,-0.00407928,0.00101383,-0.00070961,0.00078725,0.000
 08548,-0.00019446,0.00048135,-0.00015097,0.00067879,0.00095103,0.00018
 357,0.01422191,0.03781154,0.01052845,-0.00781356,-0.00707498,-0.007170
 67,-0.16420461,0.07084495,-0.01944251,-0.02906058,0.02885388,-0.017836
 36,0.00182412,0.01366201,-0.01276894,-0.00102949,-0.08984033,-0.041581
 07,0.19546640,-0.00396912,-0.00665116,-0.00951940,-0.00020262,0.001600
 47,0.00012641,0.00050068,-0.00287877,0.00156206,0.00061180,0.00028822,
 -0.00021589,-0.00039341,-0.05426849,0.00068758,-0.00163596,0.00421360,
 -0.00040865,0.07092962,-0.14843012,0.02995778,0.00672788,0.00596671,-0
 .00184164,0.01606199,-0.02219341,0.01323428,0.01029814,-0.10516943,-0.
 03664585,-0.11932326,0.30593383,-0.00304549,-0.00247537,-0.00412520,-0
 .00025380,0.00093741,-0.00021053,0.00030027,-0.00133313,0.00050146,0.0
 0049600,-0.00024977,0.00007031,0.00428616,-0.01951559,0.00725519,-0.00
 546963,0.00264873,0.00074317,-0.03911081,0.05555858,-0.05765557,-0.007
 62216,-0.00381510,-0.00352650,-0.02255929,0.02279928,-0.01001107,-0.00
 251451,-0.09026542,-0.02290632,0.05724745,-0.02901317,0.08680667,-0.00
 374576,0.00228497,0.00004509,0.00051390,0.00008911,-0.00055796,-0.0000
 4226,0.00001415,-0.00000501,-0.00048462,-0.00063190,0.00025024,-0.0080
 8153,0.02651857,-0.00949642,0.00220111,0.00023005,0.00453245,-0.028841
 77,0.00362901,-0.02517705,-0.00262652,0.00202260,-0.00064482,-0.003702
 94,0.00313457,0.00116819,-0.04366850,0.03539171,0.01162475,-0.01050010
 ,0.02039425,0.01824581,0.09897898,0.00181071,0.00775422,0.00358244,0.0
 0096510,-0.00219470,-0.00025140,-0.00021898,0.00095563,-0.00050839,-0.
 00159496,-0.00103295,0.00047508,0.03432802,-0.02456528,-0.01634559,0.0
 0869221,-0.00277506,0.00845064,0.00464899,0.00944533,-0.01978278,0.001
 14557,0.00196330,0.00557933,-0.00703373,0.00719167,0.00292549,-0.01659
 165,0.06679313,0.03591191,0.06692582,0.02158856,0.06472355,-0.09307709
 ,-0.08512385,-0.00028330,0.00723745,0.00320238,0.00043911,-0.00096621,
 0.00007949,-0.00010205,0.00061199,-0.00026112,-0.00075178,-0.00054290,
 0.00031208,0.00491154,-0.00588607,-0.00290997,0.00441572,-0.00234726,0
 .00133798,-0.02802843,-0.00306599,-0.01929887,0.00168913,0.00534866,0.
 00428087,-0.00350487,0.00194327,-0.00149170,-0.00869154,0.05035082,-0.
 00941087,0.02989174,0.03207649,0.00305838,0.00001473,-0.08476025,0.021
 10133\\0.,0.00000001,0.00000019,-0.00000009,0.00000008,0.00000048,0.00
 000023,-0.00000005,0.00000019,-0.00000023,0.00000006,0.,0.00000014,-0.
 00000006,-0.00000001,0.00000039,-0.00000011,0.00000019,-0.00000017,0.0
 0000006,0.,-0.00000014,0.00000006,0.00000024,-0.00000043,0.00000014,-0
 .00000004,0.00000025,-0.00000010,-0.00000039,-0.00000007,-0.00000001,-
 0.00000035,0.00000013,-0.00000009,-0.00000048\\\@
 Job cpu time:       0 days  0 hours  7 minutes 40.9 seconds.
 Elapsed time:       0 days  0 hours  7 minutes 41.7 seconds.
 File lengths (MBytes):  RWF=   2768 Int=      0 D2E=      0 Chk=     16 Scr=     16
 Normal termination of Gaussian 16 at Thu Feb  8 14:04:01 2018.
