 Entering Gaussian System, Link 0=g16
 Input=B(F)(F)F_uccsd(t)_Def2TZVP.com
 Output=B(F)(F)F_uccsd(t)_Def2TZVP.log
 Initial command:
 /curc/sw/gaussian/16/g16/l1.exe "/rc_scratch/jasm3285/Gau-53950.inp" -scrdir="/rc_scratch/jasm3285/"
 Entering Link 1 = /curc/sw/gaussian/16/g16/l1.exe PID=     53951.
  
 Copyright (c) 1988,1990,1992,1993,1995,1998,2003,2009,2016,
            Gaussian, Inc.  All Rights Reserved.
  
 This is part of the Gaussian(R) 16 program.  It is based on
 the Gaussian(R) 09 system (copyright 2009, Gaussian, Inc.),
 the Gaussian(R) 03 system (copyright 2003, Gaussian, Inc.),
 the Gaussian(R) 98 system (copyright 1998, Gaussian, Inc.),
 the Gaussian(R) 94 system (copyright 1995, Gaussian, Inc.),
 the Gaussian 92(TM) system (copyright 1992, Gaussian, Inc.),
 the Gaussian 90(TM) system (copyright 1990, Gaussian, Inc.),
 the Gaussian 88(TM) system (copyright 1988, Gaussian, Inc.),
 the Gaussian 86(TM) system (copyright 1986, Carnegie Mellon
 University), and the Gaussian 82(TM) system (copyright 1983,
 Carnegie Mellon University). Gaussian is a federally registered
 trademark of Gaussian, Inc.
  
 This software contains proprietary and confidential information,
 including trade secrets, belonging to Gaussian, Inc.
  
 This software is provided under written license and may be
 used, copied, transmitted, or stored only in accord with that
 written license.
  
 The following legend is applicable only to US Government
 contracts under FAR:
  
                    RESTRICTED RIGHTS LEGEND
  
 Use, reproduction and disclosure by the US Government is
 subject to restrictions as set forth in subparagraphs (a)
 and (c) of the Commercial Computer Software - Restricted
 Rights clause in FAR 52.227-19.
  
 Gaussian, Inc.
 340 Quinnipiac St., Bldg. 40, Wallingford CT 06492
  
  
 ---------------------------------------------------------------
 Warning -- This program may not be used in any manner that
 competes with the business of Gaussian, Inc. or will provide
 assistance to any competitor of Gaussian, Inc.  The licensee
 of this program is prohibited from giving any competitor of
 Gaussian, Inc. access to this program.  By using this program,
 the user acknowledges that Gaussian, Inc. is engaged in the
 business of creating and licensing software in the field of
 computational chemistry and represents and warrants to the
 licensee that it is not a competitor of Gaussian, Inc. and that
 it will not use this program in any manner prohibited above.
 ---------------------------------------------------------------
  

 Cite this work as:
 Gaussian 16, Revision A.03,
 M. J. Frisch, G. W. Trucks, H. B. Schlegel, G. E. Scuseria, 
 M. A. Robb, J. R. Cheeseman, G. Scalmani, V. Barone, 
 G. A. Petersson, H. Nakatsuji, X. Li, M. Caricato, A. V. Marenich, 
 J. Bloino, B. G. Janesko, R. Gomperts, B. Mennucci, H. P. Hratchian, 
 J. V. Ortiz, A. F. Izmaylov, J. L. Sonnenberg, D. Williams-Young, 
 F. Ding, F. Lipparini, F. Egidi, J. Goings, B. Peng, A. Petrone, 
 T. Henderson, D. Ranasinghe, V. G. Zakrzewski, J. Gao, N. Rega, 
 G. Zheng, W. Liang, M. Hada, M. Ehara, K. Toyota, R. Fukuda, 
 J. Hasegawa, M. Ishida, T. Nakajima, Y. Honda, O. Kitao, H. Nakai, 
 T. Vreven, K. Throssell, J. A. Montgomery, Jr., J. E. Peralta, 
 F. Ogliaro, M. J. Bearpark, J. J. Heyd, E. N. Brothers, K. N. Kudin, 
 V. N. Staroverov, T. A. Keith, R. Kobayashi, J. Normand, 
 K. Raghavachari, A. P. Rendell, J. C. Burant, S. S. Iyengar, 
 J. Tomasi, M. Cossi, J. M. Millam, M. Klene, C. Adamo, R. Cammi, 
 J. W. Ochterski, R. L. Martin, K. Morokuma, O. Farkas, 
 J. B. Foresman, and D. J. Fox, Gaussian, Inc., Wallingford CT, 2016.
 
 ******************************************
 Gaussian 16:  ES64L-G16RevA.03 25-Dec-2016
                17-Mar-2020 
 ******************************************
 %nprocshared=24
 Will use up to   24 processors via shared memory.
 ----------------------------------------------------------------------
 # sp uccsd(t)/Def2TZVP nosymm scf=(qc,maxcycle=3000) geom=connectivity
 ----------------------------------------------------------------------
 1/38=1,57=2,172=1/1;
 2/12=2,15=1,17=6,18=5,40=1/2;
 3/5=44,7=101,11=2,25=1,30=1,116=2/1,2,3;
 4//1;
 5/5=2,7=3000,8=3,38=5/8;
 8/6=4,9=120000,10=1/1,4;
 9/5=7,14=2/13;
 6/7=2,8=2,9=2,10=2/1;
 99/5=1,9=1/99;
 ------------------------------------------------------------------
 Autogenerated with dbale for SMILES B(F)(F)F_uccsd(t)_Def2TZVP.com
 ------------------------------------------------------------------
 Symbolic Z-matrix:
 Charge =  0 Multiplicity = 1
 B                     1.07189   0.06258  -0.03028 
 F                     0.41404  -0.96472  -0.52318 
 F                     0.41403   1.08987   0.46262 
 F                     2.38758   0.06258  -0.03028 
 
                          Input orientation:                          
 ---------------------------------------------------------------------
 Center     Atomic      Atomic             Coordinates (Angstroms)
 Number     Number       Type             X           Y           Z
 ---------------------------------------------------------------------
      1          5           0        1.071890    0.062580   -0.030280
      2          9           0        0.414040   -0.964720   -0.523180
      3          9           0        0.414030    1.089870    0.462620
      4          9           0        2.387580    0.062580   -0.030280
 ---------------------------------------------------------------------
                    Distance matrix (angstroms):
                    1          2          3          4
     1  B    0.000000
     2  F    1.315698   0.000000
     3  F    1.315696   2.278847   0.000000
     4  F    1.315690   2.278850   2.278854   0.000000
 Symmetry turned off by external request.
 Stoichiometry    BF3
 Framework group  C1[X(BF3)]
 Deg. of freedom     6
 Full point group                 C1      NOp   1
 Rotational constants (GHZ):          10.2447227          10.2446471           5.1223425
 Standard basis: def2TZVP (5D, 7F)
   124 basis functions,   204 primitive gaussians,   144 cartesian basis functions
    16 alpha electrons       16 beta electrons
       nuclear repulsion energy       110.7251046296 Hartrees.
 NAtoms=    4 NActive=    4 NUniq=    4 SFac= 1.00D+00 NAtFMM=   60 NAOKFM=F Big=F
 Integral buffers will be    131072 words long.
 Raffenetti 2 integral format.
 Two-electron integral symmetry is turned off.
 One-electron integrals computed using PRISM.
   1 Symmetry operations used in ECPInt.
 ECPInt:  NShTT=     990 NPrTT=    3328 LenC2=     979 LenP2D=    2785.
 LDataN:  DoStor=T MaxTD1= 6 Len=  172
 NBasis=   124 RedAO= T EigKep=  9.17D-04  NBF=   124
 NBsUse=   124 1.00D-06 EigRej= -1.00D+00 NBFU=   124
 ExpMin= 6.06D-02 ExpMax= 3.55D+04 ExpMxC= 1.21D+03 IAcc=3 IRadAn=         5 AccDes= 0.00D+00
 Harris functional with IExCor=  205 and IRadAn=       5 diagonalized for initial guess.
 HarFok:  IExCor=  205 AccDes= 0.00D+00 IRadAn=         5 IDoV= 1 UseB2=F ITyADJ=14
 ICtDFT=  3500011 ScaDFX=  1.000000  1.000000  1.000000  1.000000
 FoFCou: FMM=F IPFlag=           0 FMFlag=      100000 FMFlg1=           0
         NFxFlg=           0 DoJE=T BraDBF=F KetDBF=T FulRan=T
         wScrn=  0.000000 ICntrl=       500 IOpCl=  0 I1Cent=   200000004 NGrid=           0
         NMat0=    1 NMatS0=      1 NMatT0=    0 NMatD0=    1 NMtDS0=    0 NMtDT0=    0
 Symmetry not used in FoFCou.
 Initial guess <Sx>= 0.0000 <Sy>= 0.0000 <Sz>= 0.0000 <S**2>= 0.0000 S= 0.0000
 Keep R1 and R2 ints in memory in canonical form, NReq=71834924.
 Gradient too large for Newton-Raphson -- use scaled steepest descent instead.
 Gradient too large for Newton-Raphson -- use scaled steepest descent instead.
     Accept linear search using points  2 and  3.
 Gradient too large for Newton-Raphson -- use scaled steepest descent instead.
 Gradient too large for Newton-Raphson -- use scaled steepest descent instead.
     Accept linear search using points  1 and  2.
 LinEq1:  Iter=  0 NonCon=     1 RMS=4.67D-05 Max=1.19D-03 NDo=     1
 AX will form     1 AO Fock derivatives at one time.
 LinEq1:  Iter=  1 NonCon=     1 RMS=9.99D-06 Max=1.70D-04 NDo=     1
 LinEq1:  Iter=  2 NonCon=     1 RMS=3.79D-06 Max=6.34D-05 NDo=     1
 LinEq1:  Iter=  3 NonCon=     1 RMS=3.32D-07 Max=4.38D-06 NDo=     1
 LinEq1:  Iter=  4 NonCon=     1 RMS=3.65D-08 Max=6.18D-07 NDo=     1
 LinEq1:  Iter=  5 NonCon=     0 RMS=5.26D-09 Max=5.61D-08 NDo=     1
 Linear equations converged to 5.879D-09 5.879D-08 after     5 iterations.
     Accept linear search using points  1 and  2.
     Minimum is close to point  2 DX= -2.30D-04 DF= -8.53D-13 DXR=  2.30D-04 DFR=  5.46D-08 which will be used.
 LinEq1:  Iter=  0 NonCon=     1 RMS=3.07D-08 Max=3.69D-07 NDo=     1
 LinEq1:  Iter=  1 NonCon=     1 RMS=1.15D-08 Max=2.86D-07 NDo=     1
 LinEq1:  Iter=  2 NonCon=     1 RMS=1.68D-09 Max=2.01D-08 NDo=     1
 LinEq1:  Iter=  3 NonCon=     1 RMS=4.30D-10 Max=5.23D-09 NDo=     1
 LinEq1:  Iter=  4 NonCon=     1 RMS=4.90D-11 Max=7.23D-10 NDo=     1
 LinEq1:  Iter=  5 NonCon=     0 RMS=7.22D-12 Max=8.39D-11 NDo=     1
 Linear equations converged to 4.840D-11 4.840D-10 after     5 iterations.
 SCF Done:  E(UHF) =  -323.343448169     a.u. after    7 cycles
            Convg  =    0.5145D-08                    25 Fock formations.
              S**2 =  0.0000                  -V/T =  2.0008
 <Sx>= 0.0000 <Sy>= 0.0000 <Sz>= 0.0000 <S**2>= 0.0000 S= 0.0000
 <L.S>=  0.00000000000    
 Annihilation of the first spin contaminant:
 S**2 before annihilation     0.0000,   after     0.0000
 ExpMin= 6.06D-02 ExpMax= 3.55D+04 ExpMxC= 1.21D+03 IAcc=3 IRadAn=         5 AccDes= 0.00D+00
 HarFok:  IExCor=  205 AccDes= 0.00D+00 IRadAn=         5 IDoV=-2 UseB2=F ITyADJ=14
 ICtDFT= 12500011 ScaDFX=  1.000000  1.000000  1.000000  1.000000
 Range of M.O.s used for correlation:     5   124
 NBasis=   124 NAE=    16 NBE=    16 NFC=     4 NFV=     0
 NROrb=    120 NOA=    12 NOB=    12 NVA=   108 NVB=   108

 **** Warning!!: The largest alpha MO coefficient is  0.16357115D+02


 **** Warning!!: The largest beta MO coefficient is  0.16357115D+02

 Semi-Direct transformation.
 ModeAB=           2 MOrb=            12 LenV=    8052466534
 LASXX=      9636999 LTotXX=     9636999 LenRXX=     9636999
 LTotAB=     9975240 MaxLAS=    15033600 LenRXY=    15033600
 NonZer=    19273998 LenScr=    29491200 LnRSAI=           0
 LnScr1=           0 LExtra=           0 Total=     54161799
 MaxDsk=          -1 SrtSym=           F ITran=            4
 JobTyp=1 Pass  1:  I=   1 to  12.
 (rs|ai) integrals will be sorted in core.
 ModeAB=           2 MOrb=            12 LenV=    8052466534
 LASXX=      9636999 LTotXX=     9636999 LenRXX=    15033600
 LTotAB=     8087364 MaxLAS=    15033600 LenRXY=     8087364
 NonZer=    19273998 LenScr=    29491200 LnRSAI=           0
 LnScr1=           0 LExtra=           0 Total=     52612164
 MaxDsk=          -1 SrtSym=           F ITran=            4
 JobTyp=2 Pass  1:  I=   1 to  12.
 (rs|ai) integrals will be sorted in core.
 Spin components of T(2) and E(2):
     alpha-alpha T2 =       0.2197021784D-01 E2=     -0.1105774863D+00
     alpha-beta  T2 =       0.1125643143D+00 E2=     -0.6128609542D+00
     beta-beta   T2 =       0.2197021784D-01 E2=     -0.1105774863D+00
 ANorm=    0.1075409108D+01
 E2 =    -0.8340159268D+00 EUMP2 =    -0.32417746409611D+03
 (S**2,0)=  0.18346D-09           (S**2,1)=  0.18346D-09
 E(PUHF)=      -0.32334344817D+03        E(PMP2)=      -0.32417746410D+03
 Keep R2 and R3 ints in memory in canonical form, NReq=71842330.
 CIDS: In Core Option IDoMem=           1.
 Iterations=  50 Convergence= 0.100D-06
 Produce multiple copies of IABC intergrals
 Iteration Nr.   1
 **********************
 DD1Dir will call FoFMem   1 times, MxPair=       420
 NAB=   144 NAA=    66 NBB=    66.
 E(PMP3)=      -0.32417204969D+03
 MP4(R+Q)=  0.98411552D-02
 E3=        0.54144079D-02        EUMP3=      -0.32417204969D+03
 E4(DQ)=   -0.16031287D-02        UMP4(DQ)=   -0.32417365282D+03
 E4(SDQ)=  -0.96366969D-02        UMP4(SDQ)=  -0.32418168639D+03
 DE(Corr)= -0.81836353     E(Corr)=     -324.16181170    
 NORM(A)=   0.10725056D+01
 Iteration Nr.   2
 **********************
 DD1Dir will call FoFMem   1 times, MxPair=       420
 NAB=   144 NAA=    66 NBB=    66.
 DE(Corr)= -0.83487427     E(CORR)=     -324.17832244     Delta=-1.65D-02
 NORM(A)=   0.10771320D+01
 Iteration Nr.   3
 **********************
 DD1Dir will call FoFMem   1 times, MxPair=       420
 NAB=   144 NAA=    66 NBB=    66.
 DE(Corr)= -0.83446070     E(CORR)=     -324.17790887     Delta= 4.14D-04
 NORM(A)=   0.10783175D+01
 Iteration Nr.   4
 **********************
 DD1Dir will call FoFMem   1 times, MxPair=       420
 NAB=   144 NAA=    66 NBB=    66.
 DE(Corr)= -0.83566542     E(CORR)=     -324.17911359     Delta=-1.20D-03
 NORM(A)=   0.10786761D+01
 Iteration Nr.   5
 **********************
 DD1Dir will call FoFMem   1 times, MxPair=       420
 NAB=   144 NAA=    66 NBB=    66.
 DE(Corr)= -0.83576686     E(CORR)=     -324.17921503     Delta=-1.01D-04
 NORM(A)=   0.10787502D+01
 Iteration Nr.   6
 **********************
 DD1Dir will call FoFMem   1 times, MxPair=       420
 NAB=   144 NAA=    66 NBB=    66.
 DE(Corr)= -0.83577234     E(CORR)=     -324.17922051     Delta=-5.48D-06
 NORM(A)=   0.10787578D+01
 Iteration Nr.   7
 **********************
 DD1Dir will call FoFMem   1 times, MxPair=       420
 NAB=   144 NAA=    66 NBB=    66.
 DE(Corr)= -0.83577216     E(CORR)=     -324.17922033     Delta= 1.79D-07
 NORM(A)=   0.10787584D+01
 Iteration Nr.   8
 **********************
 DD1Dir will call FoFMem   1 times, MxPair=       420
 NAB=   144 NAA=    66 NBB=    66.
 DE(Corr)= -0.83577152     E(CORR)=     -324.17921969     Delta= 6.44D-07
 NORM(A)=   0.10787591D+01
 Iteration Nr.   9
 **********************
 DD1Dir will call FoFMem   1 times, MxPair=       420
 NAB=   144 NAA=    66 NBB=    66.
 DE(Corr)= -0.83577183     E(CORR)=     -324.17922000     Delta=-3.10D-07
 NORM(A)=   0.10787592D+01
 Iteration Nr.  10
 **********************
 DD1Dir will call FoFMem   1 times, MxPair=       420
 NAB=   144 NAA=    66 NBB=    66.
 DE(Corr)= -0.83577179     E(CORR)=     -324.17921996     Delta= 4.25D-08
 NORM(A)=   0.10787593D+01
 Wavefunction amplitudes converged. E(Corr)=     -324.17921996    
 Largest amplitude= 3.16D-02
 Time for triples=      762.76 seconds.
 T4(CCSD)= -0.25336627D-01
 T5(CCSD)=  0.16226229D-02
 CCSD(T)= -0.32420293396D+03

 S**2, projected HF & approx projected MPn energies after annihilation of
 unwanted spin states (see manual for definitions):

 spins       (S**2,0) (S**2,1)    PUHF        PMP2        PMP3        PMP4
 annihilated
 s+1        -0.00000 -0.00000 -323.343448 -324.177464 -324.172050
 s+1,s+2     0.00000  0.00000 -323.343448 -324.177464 -324.172050
 s+1 to s+3 -0.00000 -0.00000 -323.343448 -324.177464 -324.172050
 s+1 to s+4  0.00000  0.00000 -323.343448 -324.177464 -324.172050
 s+1 to s+5 -0.00000  0.00000 -323.343448
 s+1 to s+6  0.00000  0.00000 -323.343448

 Discarding MO integrals.

 **********************************************************************

            Population analysis using the SCF density.

 **********************************************************************

 Alpha  occ. eigenvalues --  -26.33863 -26.33863 -26.33861  -7.78203  -1.68437
 Alpha  occ. eigenvalues --   -1.64208  -1.64207  -0.85748  -0.81156  -0.81156
 Alpha  occ. eigenvalues --   -0.76193  -0.70000  -0.70000  -0.68699  -0.68699
 Alpha  occ. eigenvalues --   -0.66323
 Alpha virt. eigenvalues --    0.10097   0.13794   0.18446   0.18446   0.25357
 Alpha virt. eigenvalues --    0.38659   0.54730   0.54730   0.56371   0.65206
 Alpha virt. eigenvalues --    0.65207   0.65713   0.65713   0.74412   0.76646
 Alpha virt. eigenvalues --    0.76646   0.84107   0.84850   0.84851   0.85643
 Alpha virt. eigenvalues --    0.88483   0.97412   0.97412   1.07320   1.08453
 Alpha virt. eigenvalues --    1.08454   1.34232   1.34232   1.46381   1.81384
 Alpha virt. eigenvalues --    1.81384   1.89905   1.95824   1.95824   2.02129
 Alpha virt. eigenvalues --    2.06791   2.06791   2.17982   2.21385   2.29547
 Alpha virt. eigenvalues --    2.29548   2.42608   2.61149   2.61150   2.67850
 Alpha virt. eigenvalues --    2.67850   2.82278   2.97694   2.98026   2.98026
 Alpha virt. eigenvalues --    3.14080   3.16004   3.16004   3.23973   3.23973
 Alpha virt. eigenvalues --    3.34943   3.83127   3.90232   3.90233   3.94228
 Alpha virt. eigenvalues --    3.94228   4.27406   4.27406   4.39941   4.60176
 Alpha virt. eigenvalues --    4.60176   4.87529   4.90736   7.30470   7.33746
 Alpha virt. eigenvalues --    7.33746   7.33849   7.33882   7.33882   7.34580
 Alpha virt. eigenvalues --    7.43023   7.43023   7.45601   7.51042   7.52280
 Alpha virt. eigenvalues --    7.52280   7.53994   7.53995   7.68598   7.68598
 Alpha virt. eigenvalues --    7.78991   7.90432   7.90432   7.99601   8.81485
 Alpha virt. eigenvalues --    8.93363   8.93364   9.01859   9.01859   9.06381
 Alpha virt. eigenvalues --    9.27151   9.39404   9.39404   9.41264   9.41265
 Alpha virt. eigenvalues --    9.52355   9.52356   9.58097  10.07761  16.85214
 Alpha virt. eigenvalues --   58.77353  58.77354  59.07230
  Beta  occ. eigenvalues --  -26.33863 -26.33863 -26.33861  -7.78203  -1.68437
  Beta  occ. eigenvalues --   -1.64208  -1.64207  -0.85748  -0.81156  -0.81156
  Beta  occ. eigenvalues --   -0.76193  -0.70000  -0.70000  -0.68699  -0.68699
  Beta  occ. eigenvalues --   -0.66323
  Beta virt. eigenvalues --    0.10097   0.13794   0.18446   0.18446   0.25357
  Beta virt. eigenvalues --    0.38659   0.54730   0.54730   0.56371   0.65206
  Beta virt. eigenvalues --    0.65207   0.65713   0.65713   0.74412   0.76646
  Beta virt. eigenvalues --    0.76646   0.84107   0.84850   0.84851   0.85643
  Beta virt. eigenvalues --    0.88483   0.97412   0.97412   1.07320   1.08453
  Beta virt. eigenvalues --    1.08454   1.34232   1.34232   1.46381   1.81384
  Beta virt. eigenvalues --    1.81384   1.89905   1.95824   1.95824   2.02129
  Beta virt. eigenvalues --    2.06791   2.06791   2.17982   2.21385   2.29547
  Beta virt. eigenvalues --    2.29548   2.42608   2.61149   2.61150   2.67850
  Beta virt. eigenvalues --    2.67850   2.82278   2.97694   2.98026   2.98026
  Beta virt. eigenvalues --    3.14080   3.16004   3.16004   3.23973   3.23973
  Beta virt. eigenvalues --    3.34943   3.83127   3.90232   3.90233   3.94228
  Beta virt. eigenvalues --    3.94228   4.27406   4.27406   4.39941   4.60176
  Beta virt. eigenvalues --    4.60176   4.87529   4.90736   7.30470   7.33746
  Beta virt. eigenvalues --    7.33746   7.33849   7.33882   7.33882   7.34580
  Beta virt. eigenvalues --    7.43023   7.43023   7.45601   7.51042   7.52280
  Beta virt. eigenvalues --    7.52280   7.53994   7.53995   7.68598   7.68598
  Beta virt. eigenvalues --    7.78991   7.90432   7.90432   7.99601   8.81485
  Beta virt. eigenvalues --    8.93363   8.93364   9.01859   9.01859   9.06381
  Beta virt. eigenvalues --    9.27151   9.39404   9.39404   9.41264   9.41265
  Beta virt. eigenvalues --    9.52355   9.52356   9.58097  10.07761  16.85214
  Beta virt. eigenvalues --   58.77353  58.77354  59.07230
          Condensed to atoms (all electrons):
               1          2          3          4
     1  B    2.866338   0.402648   0.402649   0.402652
     2  F    0.402648   8.945648  -0.019861  -0.019860
     3  F    0.402649  -0.019861   8.945643  -0.019860
     4  F    0.402652  -0.019860  -0.019860   8.945635
          Atomic-Atomic Spin Densities.
               1          2          3          4
     1  B    0.000000   0.000000   0.000000   0.000000
     2  F    0.000000   0.000000   0.000000   0.000000
     3  F    0.000000   0.000000   0.000000   0.000000
     4  F    0.000000   0.000000   0.000000   0.000000
 Mulliken charges and spin densities:
               1          2
     1  B    0.925713   0.000000
     2  F   -0.308574   0.000000
     3  F   -0.308572   0.000000
     4  F   -0.308567   0.000000
 Sum of Mulliken charges =   0.00000   0.00000
 Mulliken charges and spin densities with hydrogens summed into heavy atoms:
               1          2
     1  B    0.925713   0.000000
     2  F   -0.308574   0.000000
     3  F   -0.308572   0.000000
     4  F   -0.308567   0.000000
 Electronic spatial extent (au):  <R**2>=            344.6371
 Charge=              0.0000 electrons
 Dipole moment (field-independent basis, Debye):
    X=              0.0001    Y=              0.0000    Z=              0.0000  Tot=              0.0001
 Quadrupole moment (field-independent basis, Debye-Ang):
   XX=            -22.1328   YY=            -21.2569   ZZ=            -18.3276
   XY=              0.0000   XZ=              0.0000   YZ=             -1.8258
 Traceless Quadrupole moment (field-independent basis, Debye-Ang):
   XX=             -1.5604   YY=             -0.6845   ZZ=              2.2448
   XY=              0.0000   XZ=              0.0000   YZ=             -1.8258
 Octapole moment (field-independent basis, Debye-Ang**2):
  XXX=            -73.3046  YYY=             -3.9906  ZZZ=              1.6649  XYY=            -21.0511
  XXY=             -1.3850  XXZ=              0.6702  XZZ=            -19.2459  YZZ=             -1.0363
  YYZ=              0.4152  XYZ=             -1.1252
 Hexadecapole moment (field-independent basis, Debye-Ang**3):
 XXXX=           -254.0183 YYYY=            -77.2909 ZZZZ=            -26.1967 XXXY=             -4.5872
 XXXZ=              2.2197 YYYX=             -3.9519 YYYZ=            -15.9764 ZZZX=              1.7484
 ZZZY=            -15.4232 XXYY=            -48.9608 XXZZ=            -39.7044 YYZZ=            -17.3073
 XXYZ=             -5.6862 YYXZ=              0.4966 ZZXY=             -1.1362
 N-N= 1.107251046296D+02 E-N=-9.943424125236D+02  KE= 3.230976276332D+02
 1\1\GINC-BNODE0309\SP\UCCSD(T)-FC\def2TZVP\B1F3\JASM3285\17-Mar-2020\0
 \\# sp uccsd(t)/Def2TZVP nosymm scf=(qc,maxcycle=3000) geom=connectivi
 ty\\Autogenerated with dbale for SMILES B(F)(F)F_uccsd(t)_Def2TZVP.com
 \\0,1\B,0,1.07189,0.06258,-0.03028\F,0,0.41404,-0.96472,-0.52318\F,0,0
 .41403,1.08987,0.46262\F,0,2.38758,0.06258,-0.03028\\Version=ES64L-G16
 RevA.03\HF=-323.3434482\MP2=-324.1774641\MP3=-324.1720497\MP4D=-324.18
 3494\MP4DQ=-324.1736528\PUHF=-323.3434482\PMP2-0=-324.1774641\PMP3-0=-
 324.1720497\MP4SDQ=-324.1816864\CCSD=-324.17922\CCSD(T)=-324.202934\S2
 =0.\S2-1=0.\S2A=0.\RMSD=8.752e-11\PG=C01 [X(B1F3)]\\@


 YOU WILL NEVER "FIND" TIME FOR ANYTHING.
 IF YOU WANT TIME, YOU MUST MAKE IT.

                        -- CHARLES BIXTON
 Job cpu time:       0 days  0 hours 32 minutes 31.1 seconds.
 Elapsed time:       0 days  0 hours  1 minutes 22.8 seconds.
 File lengths (MBytes):  RWF=   2631 Int=      0 D2E=      0 Chk=      3 Scr=      2
 Normal termination of Gaussian 16 at Tue Mar 17 20:06:22 2020.
