 Entering Gaussian System, Link 0=g16
 Input=[B](F)(F)F_ub3lyp_Def2TZVP.com
 Output=[B](F)(F)F_ub3lyp_Def2TZVP.log
 Initial command:
 /curc/sw/gaussian/16/g16/l1.exe "/rc_scratch/jasm3285/Gau-170912.inp" -scrdir="/rc_scratch/jasm3285/"
 Entering Link 1 = /curc/sw/gaussian/16/g16/l1.exe PID=    170913.
  
 Copyright (c) 1988,1990,1992,1993,1995,1998,2003,2009,2016,
            Gaussian, Inc.  All Rights Reserved.
  
 This is part of the Gaussian(R) 16 program.  It is based on
 the Gaussian(R) 09 system (copyright 2009, Gaussian, Inc.),
 the Gaussian(R) 03 system (copyright 2003, Gaussian, Inc.),
 the Gaussian(R) 98 system (copyright 1998, Gaussian, Inc.),
 the Gaussian(R) 94 system (copyright 1995, Gaussian, Inc.),
 the Gaussian 92(TM) system (copyright 1992, Gaussian, Inc.),
 the Gaussian 90(TM) system (copyright 1990, Gaussian, Inc.),
 the Gaussian 88(TM) system (copyright 1988, Gaussian, Inc.),
 the Gaussian 86(TM) system (copyright 1986, Carnegie Mellon
 University), and the Gaussian 82(TM) system (copyright 1983,
 Carnegie Mellon University). Gaussian is a federally registered
 trademark of Gaussian, Inc.
  
 This software contains proprietary and confidential information,
 including trade secrets, belonging to Gaussian, Inc.
  
 This software is provided under written license and may be
 used, copied, transmitted, or stored only in accord with that
 written license.
  
 The following legend is applicable only to US Government
 contracts under FAR:
  
                    RESTRICTED RIGHTS LEGEND
  
 Use, reproduction and disclosure by the US Government is
 subject to restrictions as set forth in subparagraphs (a)
 and (c) of the Commercial Computer Software - Restricted
 Rights clause in FAR 52.227-19.
  
 Gaussian, Inc.
 340 Quinnipiac St., Bldg. 40, Wallingford CT 06492
  
  
 ---------------------------------------------------------------
 Warning -- This program may not be used in any manner that
 competes with the business of Gaussian, Inc. or will provide
 assistance to any competitor of Gaussian, Inc.  The licensee
 of this program is prohibited from giving any competitor of
 Gaussian, Inc. access to this program.  By using this program,
 the user acknowledges that Gaussian, Inc. is engaged in the
 business of creating and licensing software in the field of
 computational chemistry and represents and warrants to the
 licensee that it is not a competitor of Gaussian, Inc. and that
 it will not use this program in any manner prohibited above.
 ---------------------------------------------------------------
  

 Cite this work as:
 Gaussian 16, Revision A.03,
 M. J. Frisch, G. W. Trucks, H. B. Schlegel, G. E. Scuseria, 
 M. A. Robb, J. R. Cheeseman, G. Scalmani, V. Barone, 
 G. A. Petersson, H. Nakatsuji, X. Li, M. Caricato, A. V. Marenich, 
 J. Bloino, B. G. Janesko, R. Gomperts, B. Mennucci, H. P. Hratchian, 
 J. V. Ortiz, A. F. Izmaylov, J. L. Sonnenberg, D. Williams-Young, 
 F. Ding, F. Lipparini, F. Egidi, J. Goings, B. Peng, A. Petrone, 
 T. Henderson, D. Ranasinghe, V. G. Zakrzewski, J. Gao, N. Rega, 
 G. Zheng, W. Liang, M. Hada, M. Ehara, K. Toyota, R. Fukuda, 
 J. Hasegawa, M. Ishida, T. Nakajima, Y. Honda, O. Kitao, H. Nakai, 
 T. Vreven, K. Throssell, J. A. Montgomery, Jr., J. E. Peralta, 
 F. Ogliaro, M. J. Bearpark, J. J. Heyd, E. N. Brothers, K. N. Kudin, 
 V. N. Staroverov, T. A. Keith, R. Kobayashi, J. Normand, 
 K. Raghavachari, A. P. Rendell, J. C. Burant, S. S. Iyengar, 
 J. Tomasi, M. Cossi, J. M. Millam, M. Klene, C. Adamo, R. Cammi, 
 J. W. Ochterski, R. L. Martin, K. Morokuma, O. Farkas, 
 J. B. Foresman, and D. J. Fox, Gaussian, Inc., Wallingford CT, 2016.
 
 ******************************************
 Gaussian 16:  ES64L-G16RevA.03 25-Dec-2016
                17-Mar-2020 
 ******************************************
 %nprocshared=24
 Will use up to   24 processors via shared memory.
 ----------------------------------------------------------------------
 # opt=(calcfc,maxcycles=200) freq ub3lyp/Def2TZVP nosymm scf=(qc,maxcy
 cle=3000) geom=connectivity
 ----------------------------------------------------------------------
 1/6=200,10=4,18=20,19=15,26=3,38=1,57=2/1,3;
 2/9=110,12=2,15=1,17=6,18=5,40=1/2;
 3/5=44,7=101,11=2,25=1,30=1,71=2,74=-5,116=2,140=1/1,2,3;
 4//1;
 5/5=2,7=3000,8=3,38=5/8;
 8/6=4,10=90,11=11/1;
 11/6=1,8=1,9=11,15=111,16=1,31=1/1,2,10;
 10/6=1,13=1,31=1/2;
 6/7=2,8=2,9=2,10=2,28=1/1;
 7/10=1,18=20,25=1,30=1/1,2,3,16;
 1/6=200,10=4,18=20,19=15,26=3/3(2);
 2/9=110,15=1/2;
 99//99;
 2/9=110,15=1/2;
 3/5=44,7=101,11=2,25=1,30=1,71=1,74=-5,116=2/1,2,3;
 4/5=5,16=3,69=1/1;
 5/5=2,7=3000,8=3,38=5/8;
 7/30=1/1,2,3,16;
 1/6=200,18=20,19=15,26=3/3(-5);
 2/9=110,15=1/2;
 6/7=2,8=2,9=2,10=2,19=2,28=1/1;
 99/9=1/99;
 --------------------------------------------------------------
 Autogenerated with dbale for SMILES [B](F)(F)F_ub3lyp_Def2TZVP
 --------------------------------------------------------------
 Symbolic Z-matrix:
 Charge =  0 Multiplicity = 1
 B                     1.07188   0.06258  -0.03028 
 F                     0.34976  -1.0651   -0.57134 
 F                     0.34976   1.19025   0.51078 
 F                     2.51614   0.06258  -0.03028 
 

 GradGradGradGradGradGradGradGradGradGradGradGradGradGradGradGradGradGrad
 Berny optimization.
 Initialization pass.
                           ----------------------------
                           !    Initial Parameters    !
                           ! (Angstroms and Degrees)  !
 --------------------------                            --------------------------
 ! Name  Definition              Value          Derivative Info.                !
 --------------------------------------------------------------------------------
 ! R1    R(1,2)                  1.4443         calculate D2E/DX2 analytically  !
 ! R2    R(1,3)                  1.4442         calculate D2E/DX2 analytically  !
 ! R3    R(1,4)                  1.4443         calculate D2E/DX2 analytically  !
 ! A1    A(2,1,3)              120.0004         calculate D2E/DX2 analytically  !
 ! A2    A(2,1,4)              119.9997         calculate D2E/DX2 analytically  !
 ! A3    A(3,1,4)              119.9999         calculate D2E/DX2 analytically  !
 ! D1    D(2,1,4,3)           -179.9998         calculate D2E/DX2 analytically  !
 --------------------------------------------------------------------------------
 Trust Radius=3.00D-01 FncErr=1.00D-07 GrdErr=1.00D-06 EigMax=2.50D+02 EigMin=1.00D-04
 Number of steps in this run=    100 maximum allowed number of steps=    100.
 GradGradGradGradGradGradGradGradGradGradGradGradGradGradGradGradGradGrad

                          Input orientation:                          
 ---------------------------------------------------------------------
 Center     Atomic      Atomic             Coordinates (Angstroms)
 Number     Number       Type             X           Y           Z
 ---------------------------------------------------------------------
      1          5           0        1.071880    0.062580   -0.030280
      2          9           0        0.349760   -1.065100   -0.571340
      3          9           0        0.349760    1.190250    0.510780
      4          9           0        2.516140    0.062580   -0.030280
 ---------------------------------------------------------------------
                    Distance matrix (angstroms):
                    1          2          3          4
     1  B    0.000000
     2  F    1.444253   0.000000
     3  F    1.444245   2.501517   0.000000
     4  F    1.444260   2.501522   2.501517   0.000000
 Symmetry turned off by external request.
 Stoichiometry    BF3
 Framework group  C1[X(BF3)]
 Deg. of freedom     6
 Full point group                 C1      NOp   1
 Rotational constants (GHZ):           8.5020506           8.5020092           4.2510150
 Standard basis: def2TZVP (5D, 7F)
   124 basis functions,   204 primitive gaussians,   144 cartesian basis functions
    16 alpha electrons       16 beta electrons
       nuclear repulsion energy       100.8690919176 Hartrees.
 NAtoms=    4 NActive=    4 NUniq=    4 SFac= 1.00D+00 NAtFMM=   60 NAOKFM=F Big=F
 Integral buffers will be    131072 words long.
 Raffenetti 2 integral format.
 Two-electron integral symmetry is turned off.
 One-electron integrals computed using PRISM.
   1 Symmetry operations used in ECPInt.
 ECPInt:  NShTT=     990 NPrTT=    3328 LenC2=     973 LenP2D=    2743.
 LDataN:  DoStor=T MaxTD1= 6 Len=  172
 NBasis=   124 RedAO= T EigKep=  1.41D-03  NBF=   124
 NBsUse=   124 1.00D-06 EigRej= -1.00D+00 NBFU=   124
 ExpMin= 6.06D-02 ExpMax= 3.55D+04 ExpMxC= 1.21D+03 IAcc=3 IRadAn=         5 AccDes= 0.00D+00
 Harris functional with IExCor=  402 and IRadAn=       5 diagonalized for initial guess.
 HarFok:  IExCor=  402 AccDes= 0.00D+00 IRadAn=         5 IDoV= 1 UseB2=F ITyADJ=14
 ICtDFT=  3500011 ScaDFX=  1.000000  1.000000  1.000000  1.000000
 FoFCou: FMM=F IPFlag=           0 FMFlag=      100000 FMFlg1=           0
         NFxFlg=           0 DoJE=T BraDBF=F KetDBF=T FulRan=T
         wScrn=  0.000000 ICntrl=       500 IOpCl=  0 I1Cent=   200000004 NGrid=           0
         NMat0=    1 NMatS0=      1 NMatT0=    0 NMatD0=    1 NMtDS0=    0 NMtDT0=    0
 Symmetry not used in FoFCou.
 Initial guess <Sx>= 0.0000 <Sy>= 0.0000 <Sz>= 0.0000 <S**2>=-0.0000 S=-0.0000
 Keep R1 and R2 ints in memory in canonical form, NReq=83368818.
 Gradient too large for Newton-Raphson -- use scaled steepest descent instead.
 Gradient too large for Newton-Raphson -- use scaled steepest descent instead.
 Gradient too large for Newton-Raphson -- use scaled steepest descent instead.
 LinEq1:  Iter=  0 NonCon=     1 RMS=7.46D-05 Max=2.19D-03 NDo=     1
 AX will form     1 AO Fock derivatives at one time.
 LinEq1:  Iter=  1 NonCon=     1 RMS=5.01D-05 Max=6.62D-04 NDo=     1
 LinEq1:  Iter=  2 NonCon=     1 RMS=3.39D-06 Max=4.53D-05 NDo=     1
 LinEq1:  Iter=  3 NonCon=     1 RMS=9.87D-07 Max=1.88D-05 NDo=     1
 LinEq1:  Iter=  4 NonCon=     1 RMS=1.26D-07 Max=1.45D-06 NDo=     1
 LinEq1:  Iter=  5 NonCon=     1 RMS=3.71D-08 Max=5.50D-07 NDo=     1
 LinEq1:  Iter=  6 NonCon=     1 RMS=2.59D-08 Max=2.98D-07 NDo=     1
 LinEq1:  Iter=  7 NonCon=     0 RMS=2.53D-09 Max=3.62D-08 NDo=     1
 Linear equations converged to 5.879D-09 5.879D-08 after     7 iterations.
     Minimum is close to point  2 DX=  1.02D-03 DF= -1.03D-11 DXR=  1.02D-03 DFR=  1.04D-06 which will be used.
 LinEq1:  Iter=  0 NonCon=     1 RMS=8.56D-08 Max=2.74D-06 NDo=     1
 LinEq1:  Iter=  1 NonCon=     1 RMS=4.95D-08 Max=6.05D-07 NDo=     1
 LinEq1:  Iter=  2 NonCon=     1 RMS=1.36D-08 Max=1.49D-07 NDo=     1
 LinEq1:  Iter=  3 NonCon=     1 RMS=2.45D-09 Max=2.69D-08 NDo=     1
 LinEq1:  Iter=  4 NonCon=     1 RMS=4.19D-10 Max=5.73D-09 NDo=     1
 LinEq1:  Iter=  5 NonCon=     1 RMS=4.16D-11 Max=5.09D-10 NDo=     1
 LinEq1:  Iter=  6 NonCon=     1 RMS=3.77D-11 Max=4.53D-10 NDo=     1
 LinEq1:  Iter=  7 NonCon=     0 RMS=3.33D-12 Max=4.85D-11 NDo=     1
 Linear equations converged to 3.447D-11 3.447D-10 after     7 iterations.
 SCF Done:  E(UB3LYP) =  -324.675431529     a.u. after    6 cycles
            Convg  =    0.7592D-10                    28 Fock formations.
              S**2 =  0.0000                  -V/T =  2.0061
 <Sx>= 0.0000 <Sy>= 0.0000 <Sz>= 0.0000 <S**2>= 0.0000 S= 0.0000
 <L.S>=  0.00000000000    
 Annihilation of the first spin contaminant:
 S**2 before annihilation     0.0000,   after    -0.0000
 DoSCS=F DFT=T ScalE2(SS,OS)=  1.000000  1.000000
 Range of M.O.s used for correlation:     1   124
 NBasis=   124 NAE=    16 NBE=    16 NFC=     0 NFV=     0
 NROrb=    124 NOA=    16 NOB=    16 NVA=   108 NVB=   108

 **** Warning!!: The largest alpha MO coefficient is  0.13099009D+02


 **** Warning!!: The largest beta MO coefficient is  0.13099009D+02

   1 Symmetry operations used in ECPInt.
 ECPInt:  NShTT=     990 NPrTT=    3328 LenC2=     973 LenP2D=    2743.
 LDataN:  DoStor=T MaxTD1= 7 Len=  274
 Symmetrizing basis deriv contribution to polar:
 IMax=3 JMax=2 DiffMx= 0.00D+00
 G2DrvN: will do     5 centers at a time, making    1 passes.
 Calling FoFCou, ICntrl=  3107 FMM=F I1Cent=   0 AccDes= 0.00D+00.
 End of G2Drv F.D. properties file   721 does not exist.
 End of G2Drv F.D. properties file   722 does not exist.
 End of G2Drv F.D. properties file   788 does not exist.
          IDoAtm=1111
          Differentiating once with respect to nuclear coordinates.
 Keep R1 and R2 ints in memory in canonical form, NReq=83288284.
          There are    15 degrees of freedom in the 1st order CPHF.  IDoFFX=6 NUNeed=     0.
      9 vectors produced by pass  0 Test12= 2.30D-14 6.67D-09 XBig12= 1.87D-01 9.90D-02.
 AX will form     9 AO Fock derivatives at one time.
      9 vectors produced by pass  1 Test12= 2.30D-14 6.67D-09 XBig12= 8.69D-02 1.28D-01.
      9 vectors produced by pass  2 Test12= 2.30D-14 6.67D-09 XBig12= 5.07D-03 1.41D-02.
      9 vectors produced by pass  3 Test12= 2.30D-14 6.67D-09 XBig12= 1.17D-04 2.91D-03.
      9 vectors produced by pass  4 Test12= 2.30D-14 6.67D-09 XBig12= 1.63D-06 4.48D-04.
      9 vectors produced by pass  5 Test12= 2.30D-14 6.67D-09 XBig12= 7.33D-09 1.63D-05.
      6 vectors produced by pass  6 Test12= 2.30D-14 6.67D-09 XBig12= 3.79D-11 1.26D-06.
      3 vectors produced by pass  7 Test12= 2.30D-14 6.67D-09 XBig12= 1.29D-13 8.44D-08.
 InvSVY:  IOpt=1 It=  1 EMax= 7.77D-16
 Solved reduced A of dimension    63 with     9 vectors.
 End of Minotr F.D. properties file   721 does not exist.
 End of Minotr F.D. properties file   722 does not exist.
 End of Minotr F.D. properties file   788 does not exist.

 **********************************************************************

            Population analysis using the SCF density.

 **********************************************************************

 Alpha  occ. eigenvalues --  -24.73186 -24.73186 -24.73186  -6.98017  -1.24561
 Alpha  occ. eigenvalues --   -1.22068  -1.22067  -0.61028  -0.55770  -0.55770
 Alpha  occ. eigenvalues --   -0.51318  -0.46888  -0.46888  -0.46226  -0.46225
 Alpha  occ. eigenvalues --   -0.44116
 Alpha virt. eigenvalues --   -0.04639  -0.02808   0.08943   0.08943   0.11246
 Alpha virt. eigenvalues --    0.14314   0.24749   0.24749   0.40058   0.44055
 Alpha virt. eigenvalues --    0.44055   0.45786   0.45786   0.58590   0.59120
 Alpha virt. eigenvalues --    0.59120   0.64117   0.64149   0.67174   0.67174
 Alpha virt. eigenvalues --    0.67186   0.76016   0.76016   0.82659   0.87536
 Alpha virt. eigenvalues --    0.87537   1.07951   1.07951   1.19732   1.46984
 Alpha virt. eigenvalues --    1.46984   1.65790   1.67520   1.67809   1.71832
 Alpha virt. eigenvalues --    1.71833   1.75013   1.75013   1.90622   1.99058
 Alpha virt. eigenvalues --    1.99059   2.04759   2.20621   2.20621   2.26606
 Alpha virt. eigenvalues --    2.26607   2.50572   2.52965   2.52965   2.62151
 Alpha virt. eigenvalues --    2.69896   2.70715   2.70716   2.71688   2.71688
 Alpha virt. eigenvalues --    2.89184   3.25069   3.25069   3.29612   3.33181
 Alpha virt. eigenvalues --    3.33182   3.69973   3.76507   3.76507   4.02824
 Alpha virt. eigenvalues --    4.08811   4.08812   4.10016   6.79297   6.81798
 Alpha virt. eigenvalues --    6.81798   6.81920   6.81998   6.81999   6.82031
 Alpha virt. eigenvalues --    6.84084   6.84084   6.88605   6.88708   6.88708
 Alpha virt. eigenvalues --    6.91072   6.92169   6.92169   7.05519   7.05519
 Alpha virt. eigenvalues --    7.11442   7.13009   7.13010   7.31136   8.18854
 Alpha virt. eigenvalues --    8.26091   8.26092   8.31612   8.31612   8.35000
 Alpha virt. eigenvalues --    8.56634   8.64077   8.64077   8.65070   8.65070
 Alpha virt. eigenvalues --    8.76115   8.76815   8.76816   9.13567  14.86968
 Alpha virt. eigenvalues --   56.77722  56.77722  56.97440
  Beta  occ. eigenvalues --  -24.73186 -24.73186 -24.73186  -6.98017  -1.24561
  Beta  occ. eigenvalues --   -1.22068  -1.22067  -0.61028  -0.55770  -0.55770
  Beta  occ. eigenvalues --   -0.51318  -0.46888  -0.46888  -0.46226  -0.46225
  Beta  occ. eigenvalues --   -0.44116
  Beta virt. eigenvalues --   -0.04639  -0.02808   0.08943   0.08943   0.11246
  Beta virt. eigenvalues --    0.14314   0.24749   0.24749   0.40058   0.44055
  Beta virt. eigenvalues --    0.44055   0.45786   0.45786   0.58590   0.59120
  Beta virt. eigenvalues --    0.59120   0.64117   0.64149   0.67174   0.67174
  Beta virt. eigenvalues --    0.67186   0.76016   0.76016   0.82659   0.87536
  Beta virt. eigenvalues --    0.87537   1.07951   1.07951   1.19732   1.46984
  Beta virt. eigenvalues --    1.46984   1.65790   1.67520   1.67809   1.71832
  Beta virt. eigenvalues --    1.71833   1.75013   1.75013   1.90622   1.99058
  Beta virt. eigenvalues --    1.99059   2.04759   2.20621   2.20621   2.26606
  Beta virt. eigenvalues --    2.26607   2.50572   2.52965   2.52965   2.62151
  Beta virt. eigenvalues --    2.69896   2.70715   2.70716   2.71688   2.71688
  Beta virt. eigenvalues --    2.89184   3.25069   3.25069   3.29612   3.33181
  Beta virt. eigenvalues --    3.33182   3.69973   3.76507   3.76507   4.02824
  Beta virt. eigenvalues --    4.08811   4.08812   4.10016   6.79297   6.81798
  Beta virt. eigenvalues --    6.81798   6.81920   6.81998   6.81999   6.82031
  Beta virt. eigenvalues --    6.84084   6.84084   6.88605   6.88708   6.88708
  Beta virt. eigenvalues --    6.91072   6.92169   6.92169   7.05519   7.05519
  Beta virt. eigenvalues --    7.11442   7.13009   7.13010   7.31136   8.18854
  Beta virt. eigenvalues --    8.26091   8.26092   8.31612   8.31612   8.35000
  Beta virt. eigenvalues --    8.56634   8.64077   8.64077   8.65070   8.65070
  Beta virt. eigenvalues --    8.76115   8.76815   8.76816   9.13567  14.86968
  Beta virt. eigenvalues --   56.77722  56.77722  56.97440
          Condensed to atoms (all electrons):
               1          2          3          4
     1  B    3.071793   0.380901   0.380904   0.380899
     2  F    0.380901   8.910515  -0.014791  -0.014791
     3  F    0.380904  -0.014791   8.910508  -0.014791
     4  F    0.380899  -0.014791  -0.014791   8.910521
          Atomic-Atomic Spin Densities.
               1          2          3          4
     1  B    0.000000   0.000000   0.000000  -0.000000
     2  F    0.000000  -0.000000   0.000000  -0.000000
     3  F    0.000000   0.000000  -0.000000  -0.000000
     4  F   -0.000000  -0.000000  -0.000000   0.000000
 Mulliken charges and spin densities:
               1          2
     1  B    0.785503   0.000000
     2  F   -0.261834  -0.000000
     3  F   -0.261830  -0.000000
     4  F   -0.261838   0.000000
 Sum of Mulliken charges =   0.00000  -0.00000
 Mulliken charges and spin densities with hydrogens summed into heavy atoms:
               1          2
     1  B    0.785503   0.000000
     2  F   -0.261834  -0.000000
     3  F   -0.261830  -0.000000
     4  F   -0.261838   0.000000
 APT charges:
               1
     1  B    0.517935
     2  F   -0.294597
     3  F   -0.278636
     4  F    0.055299
 Sum of APT charges =   0.00000
 APT charges with hydrogens summed into heavy atoms:
               1
     1  B    0.517935
     2  F   -0.294597
     3  F   -0.278636
     4  F    0.055299
 Electronic spatial extent (au):  <R**2>=            380.7477
 Charge=              0.0000 electrons
 Dipole moment (field-independent basis, Debye):
    X=             -0.0001    Y=              0.0000    Z=              0.0000  Tot=              0.0001
 Quadrupole moment (field-independent basis, Debye-Ang):
   XX=            -22.9475   YY=            -22.0922   ZZ=            -19.2327
   XY=              0.0000   XZ=              0.0000   YZ=             -1.7823
 Traceless Quadrupole moment (field-independent basis, Debye-Ang):
   XX=             -1.5234   YY=             -0.6680   ZZ=              2.1914
   XY=              0.0000   XZ=              0.0000   YZ=             -1.7823
 Octapole moment (field-independent basis, Debye-Ang**2):
  XXX=            -75.8159  YYY=             -4.1473  ZZZ=              1.7471  XYY=            -22.0345
  XXY=             -1.4360  XXZ=              0.6949  XZZ=            -20.2364  YZZ=             -1.0956
  YYZ=              0.4459  XYZ=             -1.1207
 Hexadecapole moment (field-independent basis, Debye-Ang**3):
 XXXX=           -278.4152 YYYY=            -93.3364 ZZZZ=            -31.3943 XXXY=             -4.7445
 XXXZ=              2.2957 YYYX=             -4.1367 YYYZ=            -19.3306 ZZZX=              1.8383
 ZZZY=            -18.8106 XXYY=            -55.9919 XXZZ=            -44.8765 YYZZ=            -20.8434
 XXYZ=             -6.8417 YYXZ=              0.5269 ZZXY=             -1.1985
 N-N= 1.008690919176D+02 E-N=-9.744684962326D+02  KE= 3.227121752813D+02
  Exact polarizability:   0.000   0.000   0.000   0.000   0.000   0.000
 Approx polarizability:  24.100   0.000  22.468   0.000   3.402  17.010
                          Isotropic Fermi Contact Couplings
        Atom                 a.u.       MegaHertz       Gauss      10(-4) cm-1
     1  B(11)              0.00000       0.00000       0.00000       0.00000
     2  F(19)              0.00000       0.00000       0.00000       0.00000
     3  F(19)             -0.00000      -0.00000      -0.00000      -0.00000
     4  F(19)             -0.00000      -0.00000      -0.00000      -0.00000
 --------------------------------------------------------
       Center         ----  Spin Dipole Couplings  ----
                      3XX-RR        3YY-RR        3ZZ-RR
 --------------------------------------------------------
     1   Atom        0.000000      0.000000      0.000000
     2   Atom        0.000000      0.000000      0.000000
     3   Atom        0.000000      0.000000      0.000000
     4   Atom        0.000000      0.000000      0.000000
 --------------------------------------------------------
                        XY            XZ            YZ
 --------------------------------------------------------
     1   Atom        0.000000      0.000000      0.000000
     2   Atom        0.000000      0.000000      0.000000
     3   Atom        0.000000      0.000000      0.000000
     4   Atom        0.000000      0.000000      0.000000
 --------------------------------------------------------


 ---------------------------------------------------------------------------------
              Anisotropic Spin Dipole Couplings in Principal Axis System
 ---------------------------------------------------------------------------------

       Atom             a.u.   MegaHertz   Gauss  10(-4) cm-1        Axes

              Baa     0.0000     0.000     0.000     0.000  1.0000  0.0000  0.0000
     1 B(11)  Bbb     0.0000     0.000     0.000     0.000 -0.0000  1.0000  0.0000
              Bcc     0.0000     0.000     0.000     0.000  0.0000  0.0000  1.0000
 
              Baa     0.0000     0.000     0.000     0.000  1.0000  0.0000  0.0000
     2 F(19)  Bbb     0.0000     0.000     0.000     0.000 -0.0000  1.0000  0.0000
              Bcc     0.0000     0.000     0.000     0.000  0.0000  0.0000  1.0000
 
              Baa     0.0000     0.000     0.000     0.000  1.0000  0.0000  0.0000
     3 F(19)  Bbb     0.0000     0.000     0.000     0.000 -0.0000  1.0000  0.0000
              Bcc     0.0000     0.000     0.000     0.000  0.0000  0.0000  1.0000
 
              Baa     0.0000     0.000     0.000     0.000  1.0000  0.0000  0.0000
     4 F(19)  Bbb     0.0000     0.000     0.000     0.000 -0.0000  1.0000  0.0000
              Bcc     0.0000     0.000     0.000     0.000  0.0000  0.0000  1.0000
 

 ---------------------------------------------------------------------------------

   1 Symmetry operations used in ECPInt.
 ECPInt:  NShTT=     990 NPrTT=    3328 LenC2=     973 LenP2D=    2743.
 LDataN:  DoStor=T MaxTD1= 8 Len=  415
 Calling FoFJK, ICntrl=    100147 FMM=F ISym2X=0 I1Cent= 0 IOpClX= 1 NMat=1 NMatS=1 NMatT=0.
 -------------------------------------------------------------------
 Center     Atomic                   Forces (Hartrees/Bohr)
 Number     Number              X              Y              Z
 -------------------------------------------------------------------
      1        5           0.000004310   -0.000002105   -0.000000386
      2        9           0.046701275    0.072930107    0.034991444
      3        9           0.046700388   -0.072928027   -0.034990965
      4        9          -0.093405973    0.000000025   -0.000000093
 -------------------------------------------------------------------
 Cartesian Forces:  Max     0.093405973 RMS     0.046701782
 FormGI is forming the generalized inverse of G from B-inverse, IUseBI=4.

 GradGradGradGradGradGradGradGradGradGradGradGradGradGradGradGradGradGrad
 Berny optimization.
 Internal  Forces:  Max     0.093405973 RMS     0.061146987
 Search for a local minimum.
 Step number   1 out of a maximum of  100
 All quantities printed in internal units (Hartrees-Bohrs-Radians)
 Mixed Optimization -- RFO/linear search
 Second derivative matrix not updated -- analytic derivatives used.
 The second derivative matrix:
                          R1        R2        R3        A1        A2
           R1           0.18671
           R2           0.02751   0.18672
           R3           0.02751   0.02751   0.18670
           A1           0.01089   0.01089  -0.02179   0.09255
           A2           0.01090  -0.02179   0.01089  -0.04627   0.09255
           A3          -0.02179   0.01090   0.01090  -0.04627  -0.04628
           D1          -0.00000   0.00000  -0.00000   0.00000   0.00000
                          A3        D1
           A3           0.09255
           D1          -0.00000   0.06436
 ITU=  0
     Eigenvalues ---    0.06436   0.11478   0.11478   0.18324   0.18326
     Eigenvalues ---    0.24173
 RFO step:  Lambda=-8.10789114D-02 EMin= 6.43649151D-02
 Linear search not attempted -- first point.
 Maximum step size (   0.300) exceeded in Quadratic search.
    -- Step size scaled by   0.599
 Iteration  1 RMS(Cart)=  0.11338934 RMS(Int)=  0.00000029
 Iteration  2 RMS(Cart)=  0.00000033 RMS(Int)=  0.00000000
 Variable       Old X    -DE/DX   Delta X   Delta X   Delta X     New X
                                 (Linear)    (Quad)   (Total)
    R1        2.72924  -0.09340   0.00000  -0.17320  -0.17320   2.55604
    R2        2.72923  -0.09340   0.00000  -0.17319  -0.17319   2.55604
    R3        2.72926  -0.09341   0.00000  -0.17322  -0.17322   2.55604
    A1        2.09440  -0.00000   0.00000  -0.00001  -0.00001   2.09439
    A2        2.09439   0.00000   0.00000   0.00001   0.00001   2.09440
    A3        2.09439   0.00000   0.00000   0.00000   0.00000   2.09440
    D1       -3.14159  -0.00000   0.00000  -0.00000  -0.00000  -3.14159
         Item               Value     Threshold  Converged?
 Maximum Force            0.093406     0.000450     NO 
 RMS     Force            0.061147     0.000300     NO 
 Maximum Displacement     0.173209     0.001800     NO 
 RMS     Displacement     0.113389     0.001200     NO 
 Predicted change in Energy=-3.765624D-02
 GradGradGradGradGradGradGradGradGradGradGradGradGradGradGradGradGradGrad

                          Input orientation:                          
 ---------------------------------------------------------------------
 Center     Atomic      Atomic             Coordinates (Angstroms)
 Number     Number       Type             X           Y           Z
 ---------------------------------------------------------------------
      1          5           0        1.071886    0.062578   -0.030280
      2          9           0        0.395588   -0.993533   -0.537002
      3          9           0        0.395585    1.118686    0.476443
      4          9           0        2.424482    0.062579   -0.030281
 ---------------------------------------------------------------------
                    Distance matrix (angstroms):
                    1          2          3          4
     1  B    0.000000
     2  F    1.352596   0.000000
     3  F    1.352596   2.342764   0.000000
     4  F    1.352596   2.342766   2.342766   0.000000
 Symmetry turned off by external request.
 Stoichiometry    BF3
 Framework group  C1[X(BF3)]
 Deg. of freedom     6
 Full point group                 C1      NOp   1
 Rotational constants (GHZ):           9.6933317           9.6933054           4.8466593
 Standard basis: def2TZVP (5D, 7F)
   124 basis functions,   204 primitive gaussians,   144 cartesian basis functions
    16 alpha electrons       16 beta electrons
       nuclear repulsion energy       107.7042992619 Hartrees.
 NAtoms=    4 NActive=    4 NUniq=    4 SFac= 1.00D+00 NAtFMM=   60 NAOKFM=F Big=F
 Integral buffers will be    131072 words long.
 Raffenetti 2 integral format.
 Two-electron integral symmetry is turned off.
 One-electron integrals computed using PRISM.
   1 Symmetry operations used in ECPInt.
 ECPInt:  NShTT=     990 NPrTT=    3328 LenC2=     979 LenP2D=    2776.
 LDataN:  DoStor=T MaxTD1= 6 Len=  172
 NBasis=   124 RedAO= T EigKep=  1.03D-03  NBF=   124
 NBsUse=   124 1.00D-06 EigRej= -1.00D+00 NBFU=   124
 Initial guess from the checkpoint file:  "/rc_scratch/jasm3285/Gau-170913.chk"
 B after Tr=    -0.000001    0.000000    0.000000
         Rot=    1.000000   -0.000000   -0.000000   -0.000000 Ang=   0.00 deg.
 Initial guess <Sx>= 0.0000 <Sy>= 0.0000 <Sz>= 0.0000 <S**2>=-0.0000 S=-0.0000
 ExpMin= 6.06D-02 ExpMax= 3.55D+04 ExpMxC= 1.21D+03 IAcc=2 IRadAn=         4 AccDes= 0.00D+00
 Harris functional with IExCor=  402 and IRadAn=       4 diagonalized for initial guess.
 HarFok:  IExCor=  402 AccDes= 0.00D+00 IRadAn=         4 IDoV= 1 UseB2=F ITyADJ=14
 ICtDFT=  3500011 ScaDFX=  1.000000  1.000000  1.000000  1.000000
 FoFCou: FMM=F IPFlag=           0 FMFlag=      100000 FMFlg1=           0
         NFxFlg=           0 DoJE=T BraDBF=F KetDBF=T FulRan=T
         wScrn=  0.000000 ICntrl=       500 IOpCl=  0 I1Cent=   200000004 NGrid=           0
         NMat0=    1 NMatS0=      1 NMatT0=    0 NMatD0=    1 NMtDS0=    0 NMtDT0=    0
 Symmetry not used in FoFCou.
 Keep R1 and R2 ints in memory in canonical form, NReq=83368818.
 Gradient too large for Newton-Raphson -- use scaled steepest descent instead.
     Minimum is close to point  3 DX=  5.45D-02 DF= -2.21D-05 DXR=  8.32D-02 DFR=  6.97D-03 which will be used.
 Gradient too large for Newton-Raphson -- use scaled steepest descent instead.
     Accept linear search using points  1 and  2.
 Gradient too large for Newton-Raphson -- use scaled steepest descent instead.
 Gradient too large for Newton-Raphson -- use scaled steepest descent instead.
     Accept linear search using points  1 and  2.
 Gradient too large for Newton-Raphson -- use scaled steepest descent instead.
     Accept linear search using points  1 and  2.
 Gradient too large for Newton-Raphson -- use scaled steepest descent instead.
 Gradient too large for Newton-Raphson -- use scaled steepest descent instead.
     Accept linear search using points  1 and  2.
 Gradient too large for Newton-Raphson -- use scaled steepest descent instead.
     Accept linear search using points  4 and  5.
     Minimum is close to point  5 DX= -2.14D-01 DF= -1.23D-06 DXR=  7.41D-02 DFR=  7.28D-03 which will be used.
 Gradient too large for Newton-Raphson -- use scaled steepest descent instead.
 Gradient too large for Newton-Raphson -- use scaled steepest descent instead.
     Minimum is close to point  3 DX=  2.81D-02 DF= -6.31D-09 DXR=  1.97D-02 DFR=  3.87D-04 which will be used.
 Gradient too large for Newton-Raphson -- use scaled steepest descent instead.
 LinEq1:  Iter=  0 NonCon=     1 RMS=7.95D-05 Max=1.57D-03 NDo=     1
 AX will form     1 AO Fock derivatives at one time.
 LinEq1:  Iter=  1 NonCon=     1 RMS=1.52D-05 Max=2.19D-04 NDo=     1
 LinEq1:  Iter=  2 NonCon=     1 RMS=5.26D-06 Max=1.06D-04 NDo=     1
 LinEq1:  Iter=  3 NonCon=     1 RMS=2.50D-06 Max=3.02D-05 NDo=     1
 LinEq1:  Iter=  4 NonCon=     1 RMS=4.92D-07 Max=8.27D-06 NDo=     1
 LinEq1:  Iter=  5 NonCon=     1 RMS=3.16D-08 Max=5.28D-07 NDo=     1
 LinEq1:  Iter=  6 NonCon=     0 RMS=2.73D-09 Max=3.64D-08 NDo=     1
 Linear equations converged to 5.879D-09 5.879D-08 after     6 iterations.
     Accept linear search using points  1 and  2.
     Minimum is close to point  2 DX= -1.82D-04 DF= -7.96D-13 DXR=  1.82D-04 DFR=  3.35D-08 which will be used.
 LinEq1:  Iter=  0 NonCon=     1 RMS=1.11D-07 Max=2.93D-06 NDo=     1
 LinEq1:  Iter=  1 NonCon=     1 RMS=4.32D-08 Max=5.71D-07 NDo=     1
 LinEq1:  Iter=  2 NonCon=     1 RMS=1.11D-08 Max=1.31D-07 NDo=     1
 LinEq1:  Iter=  3 NonCon=     1 RMS=1.63D-09 Max=1.66D-08 NDo=     1
 LinEq1:  Iter=  4 NonCon=     1 RMS=2.87D-10 Max=3.93D-09 NDo=     1
 LinEq1:  Iter=  5 NonCon=     1 RMS=2.13D-10 Max=4.16D-09 NDo=     1
 LinEq1:  Iter=  6 NonCon=     0 RMS=3.40D-11 Max=3.42D-10 NDo=     1
 Linear equations converged to 6.640D-11 6.640D-10 after     6 iterations.
 SCF Done:  E(UB3LYP) =  -324.710361908     a.u. after   14 cycles
            Convg  =    0.6585D-09                    45 Fock formations.
              S**2 =  0.0000                  -V/T =  2.0046
 <Sx>= 0.0000 <Sy>= 0.0000 <Sz>= 0.0000 <S**2>= 0.0000 S= 0.0000
 <L.S>=  0.00000000000    
 Annihilation of the first spin contaminant:
 S**2 before annihilation     0.0000,   after    -0.0000
   1 Symmetry operations used in ECPInt.
 ECPInt:  NShTT=     990 NPrTT=    3328 LenC2=     979 LenP2D=    2776.
 LDataN:  DoStor=T MaxTD1= 7 Len=  274
 Calling FoFJK, ICntrl=      2127 FMM=F ISym2X=0 I1Cent= 0 IOpClX= 1 NMat=1 NMatS=1 NMatT=0.
 -------------------------------------------------------------------
 Center     Atomic                   Forces (Hartrees/Bohr)
 Number     Number              X              Y              Z
 -------------------------------------------------------------------
      1        5           0.000000447   -0.000000523    0.000000091
      2        9           0.017560232    0.027422284    0.013157143
      3        9           0.017560233   -0.027421855   -0.013157203
      4        9          -0.035120911    0.000000093   -0.000000030
 -------------------------------------------------------------------
 Cartesian Forces:  Max     0.035120911 RMS     0.017560287

 GradGradGradGradGradGradGradGradGradGradGradGradGradGradGradGradGradGrad
 Berny optimization.
 Using GEDIIS/GDIIS optimizer.
 FormGI is forming the generalized inverse of G from B-inverse, IUseBI=4.
 Internal  Forces:  Max     0.035120911 RMS     0.022991813
 Search for a local minimum.
 Step number   2 out of a maximum of  100
 All quantities printed in internal units (Hartrees-Bohrs-Radians)
 Mixed Optimization -- RFO/linear search
 Update second derivatives using D2CorX and points    1    2
 DE= -3.49D-02 DEPred=-3.77D-02 R= 9.28D-01
 TightC=F SS=  1.41D+00  RLast= 3.00D-01 DXNew= 5.0454D-01 9.0000D-01
 Trust test= 9.28D-01 RLast= 3.00D-01 DXMaxT set to 5.05D-01
 The second derivative matrix:
                          R1        R2        R3        A1        A2
           R1           0.21830
           R2           0.05909   0.21831
           R3           0.05910   0.05910   0.21830
           A1           0.01089   0.01089  -0.02179   0.09255
           A2           0.01090  -0.02179   0.01089  -0.04627   0.09255
           A3          -0.02179   0.01090   0.01089  -0.04627  -0.04628
           D1          -0.00000   0.00000  -0.00000   0.00000   0.00000
                          A3        D1
           A3           0.09255
           D1          -0.00000   0.06436
 ITU=  1  0
 Use linear search instead of GDIIS.
     Eigenvalues ---    0.06436   0.11478   0.11478   0.18324   0.18326
     Eigenvalues ---    0.33650
 RFO step:  Lambda= 0.00000000D+00 EMin= 6.43649151D-02
 Quartic linear search produced a step of  0.40995.
 Iteration  1 RMS(Cart)=  0.04648358 RMS(Int)=  0.00000005
 Iteration  2 RMS(Cart)=  0.00000005 RMS(Int)=  0.00000000
 Variable       Old X    -DE/DX   Delta X   Delta X   Delta X     New X
                                 (Linear)    (Quad)   (Total)
    R1        2.55604  -0.03512  -0.07100  -0.00000  -0.07101   2.48503
    R2        2.55604  -0.03512  -0.07100  -0.00001  -0.07101   2.48503
    R3        2.55604  -0.03512  -0.07101   0.00001  -0.07100   2.48504
    A1        2.09439  -0.00000  -0.00000   0.00001   0.00000   2.09440
    A2        2.09440   0.00000   0.00000  -0.00000  -0.00000   2.09439
    A3        2.09440  -0.00000   0.00000  -0.00000  -0.00000   2.09440
    D1       -3.14159  -0.00000  -0.00000  -0.00000  -0.00000  -3.14159
         Item               Value     Threshold  Converged?
 Maximum Force            0.035121     0.000450     NO 
 RMS     Force            0.022992     0.000300     NO 
 Maximum Displacement     0.071004     0.001800     NO 
 RMS     Displacement     0.046484     0.001200     NO 
 Predicted change in Energy=-4.936423D-03
 GradGradGradGradGradGradGradGradGradGradGradGradGradGradGradGradGradGrad

                          Input orientation:                          
 ---------------------------------------------------------------------
 Center     Atomic      Atomic             Coordinates (Angstroms)
 Number     Number       Type             X           Y           Z
 ---------------------------------------------------------------------
      1          5           0        1.071884    0.062578   -0.030280
      2          9           0        0.414375   -0.964196   -0.522926
      3          9           0        0.414373    1.089348    0.462367
      4          9           0        2.386908    0.062579   -0.030280
 ---------------------------------------------------------------------
                    Distance matrix (angstroms):
                    1          2          3          4
     1  B    0.000000
     2  F    1.315022   0.000000
     3  F    1.315020   2.277684   0.000000
     4  F    1.315025   2.277686   2.277685   0.000000
 Symmetry turned off by external request.
 Stoichiometry    BF3
 Framework group  C1[X(BF3)]
 Deg. of freedom     6
 Full point group                 C1      NOp   1
 Rotational constants (GHZ):          10.2551811          10.2551528           5.1275835
 Standard basis: def2TZVP (5D, 7F)
   124 basis functions,   204 primitive gaussians,   144 cartesian basis functions
    16 alpha electrons       16 beta electrons
       nuclear repulsion energy       110.7817353640 Hartrees.
 NAtoms=    4 NActive=    4 NUniq=    4 SFac= 1.00D+00 NAtFMM=   60 NAOKFM=F Big=F
 Integral buffers will be    131072 words long.
 Raffenetti 2 integral format.
 Two-electron integral symmetry is turned off.
 One-electron integrals computed using PRISM.
   1 Symmetry operations used in ECPInt.
 ECPInt:  NShTT=     990 NPrTT=    3328 LenC2=     979 LenP2D=    2791.
 LDataN:  DoStor=T MaxTD1= 6 Len=  172
 NBasis=   124 RedAO= T EigKep=  9.15D-04  NBF=   124
 NBsUse=   124 1.00D-06 EigRej= -1.00D+00 NBFU=   124
 Initial guess from the checkpoint file:  "/rc_scratch/jasm3285/Gau-170913.chk"
 B after Tr=     0.000000   -0.000000   -0.000000
         Rot=    1.000000    0.000000    0.000000    0.000000 Ang=   0.00 deg.
 Initial guess <Sx>= 0.0000 <Sy>= 0.0000 <Sz>= 0.0000 <S**2>=-0.0000 S=-0.0000
 ExpMin= 6.06D-02 ExpMax= 3.55D+04 ExpMxC= 1.21D+03 IAcc=2 IRadAn=         4 AccDes= 0.00D+00
 Harris functional with IExCor=  402 and IRadAn=       4 diagonalized for initial guess.
 HarFok:  IExCor=  402 AccDes= 0.00D+00 IRadAn=         4 IDoV= 1 UseB2=F ITyADJ=14
 ICtDFT=  3500011 ScaDFX=  1.000000  1.000000  1.000000  1.000000
 FoFCou: FMM=F IPFlag=           0 FMFlag=      100000 FMFlg1=           0
         NFxFlg=           0 DoJE=T BraDBF=F KetDBF=T FulRan=T
         wScrn=  0.000000 ICntrl=       500 IOpCl=  0 I1Cent=   200000004 NGrid=           0
         NMat0=    1 NMatS0=      1 NMatT0=    0 NMatD0=    1 NMtDS0=    0 NMtDT0=    0
 Symmetry not used in FoFCou.
 Keep R1 and R2 ints in memory in canonical form, NReq=83368818.
 Gradient too large for Newton-Raphson -- use scaled steepest descent instead.
     Minimum is close to point  3 DX=  4.42D-02 DF= -3.06D-06 DXR=  6.87D-02 DFR=  4.74D-03 which will be used.
 Gradient too large for Newton-Raphson -- use scaled steepest descent instead.
     Accept linear search using points  1 and  2.
 Gradient too large for Newton-Raphson -- use scaled steepest descent instead.
 Gradient too large for Newton-Raphson -- use scaled steepest descent instead.
     Accept linear search using points  1 and  2.
 Gradient too large for Newton-Raphson -- use scaled steepest descent instead.
     Accept linear search using points  1 and  2.
 Gradient too large for Newton-Raphson -- use scaled steepest descent instead.
 Gradient too large for Newton-Raphson -- use scaled steepest descent instead.
     Accept linear search using points  1 and  2.
 LinEq1:  Iter=  0 NonCon=     1 RMS=1.17D-04 Max=2.92D-03 NDo=     1
 AX will form     1 AO Fock derivatives at one time.
 LinEq1:  Iter=  1 NonCon=     1 RMS=3.87D-05 Max=6.98D-04 NDo=     1
 LinEq1:  Iter=  2 NonCon=     1 RMS=1.88D-05 Max=2.77D-04 NDo=     1
 LinEq1:  Iter=  3 NonCon=     1 RMS=4.94D-06 Max=5.73D-05 NDo=     1
 LinEq1:  Iter=  4 NonCon=     1 RMS=7.78D-07 Max=1.53D-05 NDo=     1
 LinEq1:  Iter=  5 NonCon=     1 RMS=4.51D-08 Max=5.73D-07 NDo=     1
 LinEq1:  Iter=  6 NonCon=     0 RMS=3.27D-09 Max=4.52D-08 NDo=     1
 Linear equations converged to 5.879D-09 5.879D-08 after     6 iterations.
     Accept linear search using points  1 and  2.
     Minimum is close to point  2 DX= -4.11D-04 DF= -8.24D-12 DXR=  4.12D-04 DFR=  1.70D-07 which will be used.
 LinEq1:  Iter=  0 NonCon=     1 RMS=2.19D-07 Max=6.32D-06 NDo=     1
 LinEq1:  Iter=  1 NonCon=     1 RMS=1.05D-07 Max=1.52D-06 NDo=     1
 LinEq1:  Iter=  2 NonCon=     1 RMS=1.53D-08 Max=1.93D-07 NDo=     1
 LinEq1:  Iter=  3 NonCon=     1 RMS=3.96D-09 Max=6.69D-08 NDo=     1
 LinEq1:  Iter=  4 NonCon=     1 RMS=6.90D-10 Max=8.23D-09 NDo=     1
 LinEq1:  Iter=  5 NonCon=     1 RMS=1.54D-10 Max=2.75D-09 NDo=     1
 LinEq1:  Iter=  6 NonCon=     0 RMS=7.20D-11 Max=7.50D-10 NDo=     1
 Linear equations converged to 1.332D-10 1.332D-09 after     6 iterations.
 SCF Done:  E(UB3LYP) =  -324.714174666     a.u. after   10 cycles
            Convg  =    0.1554D-08                    33 Fock formations.
              S**2 =  0.0000                  -V/T =  2.0038
 <Sx>= 0.0000 <Sy>= 0.0000 <Sz>= 0.0000 <S**2>= 0.0000 S= 0.0000
 <L.S>=  0.00000000000    
 Annihilation of the first spin contaminant:
 S**2 before annihilation     0.0000,   after     0.0000
   1 Symmetry operations used in ECPInt.
 ECPInt:  NShTT=     990 NPrTT=    3328 LenC2=     979 LenP2D=    2791.
 LDataN:  DoStor=T MaxTD1= 7 Len=  274
 Calling FoFJK, ICntrl=      2127 FMM=F ISym2X=0 I1Cent= 0 IOpClX= 1 NMat=1 NMatS=1 NMatT=0.
 -------------------------------------------------------------------
 Center     Atomic                   Forces (Hartrees/Bohr)
 Number     Number              X              Y              Z
 -------------------------------------------------------------------
      1        5           0.000003839   -0.000001391   -0.000000597
      2        9          -0.000359350   -0.000560225   -0.000268685
      3        9          -0.000360215    0.000561600    0.000269299
      4        9           0.000715727    0.000000015   -0.000000017
 -------------------------------------------------------------------
 Cartesian Forces:  Max     0.000715727 RMS     0.000358833

 GradGradGradGradGradGradGradGradGradGradGradGradGradGradGradGradGradGrad
 Berny optimization.
 Using GEDIIS/GDIIS optimizer.
 FormGI is forming the generalized inverse of G from B-inverse, IUseBI=4.
 Internal  Forces:  Max     0.000719494 RMS     0.000469820
 Search for a local minimum.
 Step number   3 out of a maximum of  100
 All quantities printed in internal units (Hartrees-Bohrs-Radians)
 Mixed Optimization -- En-DIIS/RFO-DIIS
 Update second derivatives using D2CorX and points    1    2    3
 DE= -3.81D-03 DEPred=-4.94D-03 R= 7.72D-01
 TightC=F SS=  1.41D+00  RLast= 1.23D-01 DXNew= 8.4853D-01 3.6895D-01
 Trust test= 7.72D-01 RLast= 1.23D-01 DXMaxT set to 5.05D-01
 The second derivative matrix:
                          R1        R2        R3        A1        A2
           R1           0.27438
           R2           0.11518   0.27439
           R3           0.11517   0.11517   0.27437
           A1           0.01089   0.01089  -0.02179   0.09255
           A2           0.01090  -0.02179   0.01089  -0.04627   0.09255
           A3          -0.02179   0.01090   0.01090  -0.04627  -0.04628
           D1          -0.00000   0.00000   0.00000   0.00000   0.00000
                          A3        D1
           A3           0.09255
           D1          -0.00000   0.06436
 ITU=  1  1  0
 Use linear search instead of GDIIS.
     Eigenvalues ---    0.06436   0.11478   0.11478   0.18324   0.18326
     Eigenvalues ---    0.50473
 RFO step:  Lambda= 0.00000000D+00 EMin= 6.43649151D-02
 Quartic linear search produced a step of -0.01793.
 Iteration  1 RMS(Cart)=  0.00083346 RMS(Int)=  0.00000000
 Iteration  2 RMS(Cart)=  0.00000000 RMS(Int)=  0.00000000
 Variable       Old X    -DE/DX   Delta X   Delta X   Delta X     New X
                                 (Linear)    (Quad)   (Total)
    R1        2.48503   0.00072   0.00127   0.00000   0.00127   2.48631
    R2        2.48503   0.00072   0.00127   0.00001   0.00129   2.48631
    R3        2.48504   0.00072   0.00127  -0.00001   0.00126   2.48630
    A1        2.09440  -0.00000  -0.00000  -0.00001  -0.00001   2.09439
    A2        2.09439   0.00000   0.00000   0.00001   0.00001   2.09440
    A3        2.09440   0.00000   0.00000   0.00000   0.00000   2.09440
    D1       -3.14159  -0.00000   0.00000  -0.00000  -0.00000   3.14159
         Item               Value     Threshold  Converged?
 Maximum Force            0.000719     0.000450     NO 
 RMS     Force            0.000470     0.000300     NO 
 Maximum Displacement     0.001270     0.001800     YES
 RMS     Displacement     0.000833     0.001200     YES
 Predicted change in Energy=-1.513903D-06
 GradGradGradGradGradGradGradGradGradGradGradGradGradGradGradGradGradGrad

                          Input orientation:                          
 ---------------------------------------------------------------------
 Center     Atomic      Atomic             Coordinates (Angstroms)
 Number     Number       Type             X           Y           Z
 ---------------------------------------------------------------------
      1          5           0        1.071889    0.062577   -0.030280
      2          9           0        0.414037   -0.964720   -0.523178
      3          9           0        0.414033    1.089875    0.462619
      4          9           0        2.387580    0.062579   -0.030281
 ---------------------------------------------------------------------
                    Distance matrix (angstroms):
                    1          2          3          4
     1  B    0.000000
     2  F    1.315696   0.000000
     3  F    1.315700   2.278851   0.000000
     4  F    1.315691   2.278852   2.278854   0.000000
 Symmetry turned off by external request.
 Stoichiometry    BF3
 Framework group  C1[X(BF3)]
 Deg. of freedom     6
 Full point group                 C1      NOp   1
 Rotational constants (GHZ):          10.2446846          10.2446502           5.1223337
 Standard basis: def2TZVP (5D, 7F)
   124 basis functions,   204 primitive gaussians,   144 cartesian basis functions
    16 alpha electrons       16 beta electrons
       nuclear repulsion energy       110.7250099175 Hartrees.
 NAtoms=    4 NActive=    4 NUniq=    4 SFac= 1.00D+00 NAtFMM=   60 NAOKFM=F Big=F
 Integral buffers will be    131072 words long.
 Raffenetti 2 integral format.
 Two-electron integral symmetry is turned off.
 One-electron integrals computed using PRISM.
   1 Symmetry operations used in ECPInt.
 ECPInt:  NShTT=     990 NPrTT=    3328 LenC2=     979 LenP2D=    2785.
 LDataN:  DoStor=T MaxTD1= 6 Len=  172
 NBasis=   124 RedAO= T EigKep=  9.17D-04  NBF=   124
 NBsUse=   124 1.00D-06 EigRej= -1.00D+00 NBFU=   124
 Initial guess from the checkpoint file:  "/rc_scratch/jasm3285/Gau-170913.chk"
 B after Tr=    -0.000001    0.000000    0.000000
         Rot=    1.000000   -0.000000   -0.000000   -0.000000 Ang=   0.00 deg.
 Initial guess <Sx>= 0.0000 <Sy>= 0.0000 <Sz>= 0.0000 <S**2>=-0.0000 S=-0.0000
 Keep R1 and R2 ints in memory in canonical form, NReq=83368818.
 LinEq1:  Iter=  0 NonCon=     1 RMS=9.95D-06 Max=1.61D-04 NDo=     1
 AX will form     1 AO Fock derivatives at one time.
 LinEq1:  Iter=  1 NonCon=     1 RMS=4.20D-06 Max=5.36D-05 NDo=     1
 LinEq1:  Iter=  2 NonCon=     1 RMS=2.18D-06 Max=3.82D-05 NDo=     1
 LinEq1:  Iter=  3 NonCon=     1 RMS=3.71D-07 Max=5.66D-06 NDo=     1
 LinEq1:  Iter=  4 NonCon=     1 RMS=3.29D-08 Max=5.16D-07 NDo=     1
 LinEq1:  Iter=  5 NonCon=     1 RMS=2.71D-08 Max=4.24D-07 NDo=     1
 LinEq1:  Iter=  6 NonCon=     0 RMS=2.48D-09 Max=2.79D-08 NDo=     1
 Linear equations converged to 5.879D-09 5.879D-08 after     6 iterations.
     Minimum is close to point  2 DX= -5.53D-07 DF=  0.00D+00 DXR=  5.53D-07 DFR=  0.00D+00 which will be used.
 SCF Done:  E(UB3LYP) =  -324.714176033     a.u. after    2 cycles
            Convg  =    0.9562D-07                     9 Fock formations.
              S**2 = -0.0000                  -V/T =  2.0038
 <Sx>= 0.0000 <Sy>= 0.0000 <Sz>= 0.0000 <S**2>=-0.0000 S=-0.0000
 <L.S>=  0.00000000000    
 Annihilation of the first spin contaminant:
 S**2 before annihilation    -0.0000,   after     0.0000
   1 Symmetry operations used in ECPInt.
 ECPInt:  NShTT=     990 NPrTT=    3328 LenC2=     979 LenP2D=    2785.
 LDataN:  DoStor=T MaxTD1= 7 Len=  274
 Calling FoFJK, ICntrl=      2127 FMM=F ISym2X=0 I1Cent= 0 IOpClX= 1 NMat=1 NMatS=1 NMatT=0.
 -------------------------------------------------------------------
 Center     Atomic                   Forces (Hartrees/Bohr)
 Number     Number              X              Y              Z
 -------------------------------------------------------------------
      1        5          -0.000005473    0.000002264    0.000001061
      2        9           0.000000761    0.000000917    0.000000580
      3        9           0.000002270   -0.000003212   -0.000001664
      4        9           0.000002442    0.000000031    0.000000023
 -------------------------------------------------------------------
 Cartesian Forces:  Max     0.000005473 RMS     0.000002276

 GradGradGradGradGradGradGradGradGradGradGradGradGradGradGradGradGradGrad
 Berny optimization.
 Using GEDIIS/GDIIS optimizer.
 FormGI is forming the generalized inverse of G from B-inverse, IUseBI=4.
 Internal  Forces:  Max     0.000004266 RMS     0.000001926
 Search for a local minimum.
 Step number   4 out of a maximum of  100
 All quantities printed in internal units (Hartrees-Bohrs-Radians)
 Mixed Optimization -- En-DIIS/RFO-DIIS
 Swapping is turned off.
 Update second derivatives using D2CorX and points    1    2    3    4
 DE= -1.37D-06 DEPred=-1.51D-06 R= 9.03D-01
 TightC=F SS=  1.41D+00  RLast= 2.21D-03 DXNew= 8.4853D-01 6.6156D-03
 Trust test= 9.03D-01 RLast= 2.21D-03 DXMaxT set to 5.05D-01
 The second derivative matrix:
                          R1        R2        R3        A1        A2
           R1           0.29445
           R2           0.13602   0.29602
           R3           0.13425   0.13502   0.29248
           A1           0.01083   0.01083  -0.02185   0.09255
           A2           0.01092  -0.02177   0.01091  -0.04627   0.09255
           A3          -0.02175   0.01094   0.01094  -0.04627  -0.04628
           D1          -0.00000  -0.00000  -0.00000   0.00000   0.00000
                          A3        D1
           A3           0.09255
           D1          -0.00000   0.06436
 ITU=  1  1  1  0
     Eigenvalues ---    0.06436   0.11478   0.11478   0.18325   0.18326
     Eigenvalues ---    0.56452
 En-DIIS/RFO-DIIS/Sim-DIIS IScMMF=       -3 using points:     4    3
 RFO step:  Lambda= 0.00000000D+00.
 DidBck=F Rises=F RFO-DIIS coefs:    0.99846    0.00154
 Iteration  1 RMS(Cart)=  0.00000789 RMS(Int)=  0.00000000
 Iteration  2 RMS(Cart)=  0.00000000 RMS(Int)=  0.00000000
 Variable       Old X    -DE/DX   Delta X   Delta X   Delta X     New X
                                 (Linear)    (Quad)   (Total)
    R1        2.48631  -0.00000  -0.00000  -0.00000  -0.00000   2.48630
    R2        2.48631  -0.00000  -0.00000  -0.00002  -0.00002   2.48629
    R3        2.48630   0.00000  -0.00000   0.00002   0.00002   2.48632
    A1        2.09439   0.00000   0.00000   0.00001   0.00001   2.09439
    A2        2.09440  -0.00000  -0.00000  -0.00001  -0.00001   2.09439
    A3        2.09440  -0.00000  -0.00000  -0.00000  -0.00000   2.09440
    D1        3.14159   0.00000   0.00000   0.00000   0.00000  -3.14159
         Item               Value     Threshold  Converged?
 Maximum Force            0.000004     0.000450     YES
 RMS     Force            0.000002     0.000300     YES
 Maximum Displacement     0.000013     0.001800     YES
 RMS     Displacement     0.000008     0.001200     YES
 Predicted change in Energy=-7.926099D-11
 Optimization completed.
    -- Stationary point found.
                           ----------------------------
                           !   Optimized Parameters   !
                           ! (Angstroms and Degrees)  !
 --------------------------                            --------------------------
 ! Name  Definition              Value          Derivative Info.                !
 --------------------------------------------------------------------------------
 ! R1    R(1,2)                  1.3157         -DE/DX =    0.0                 !
 ! R2    R(1,3)                  1.3157         -DE/DX =    0.0                 !
 ! R3    R(1,4)                  1.3157         -DE/DX =    0.0                 !
 ! A1    A(2,1,3)              119.9995         -DE/DX =    0.0                 !
 ! A2    A(2,1,4)              120.0003         -DE/DX =    0.0                 !
 ! A3    A(3,1,4)              120.0002         -DE/DX =    0.0                 !
 ! D1    D(2,1,4,3)           -180.0            -DE/DX =    0.0                 !
 --------------------------------------------------------------------------------
 GradGradGradGradGradGradGradGradGradGradGradGradGradGradGradGradGradGrad

                          Input orientation:                          
 ---------------------------------------------------------------------
 Center     Atomic      Atomic             Coordinates (Angstroms)
 Number     Number       Type             X           Y           Z
 ---------------------------------------------------------------------
      1          5           0        1.071889    0.062577   -0.030280
      2          9           0        0.414037   -0.964720   -0.523178
      3          9           0        0.414033    1.089875    0.462619
      4          9           0        2.387580    0.062579   -0.030281
 ---------------------------------------------------------------------
                    Distance matrix (angstroms):
                    1          2          3          4
     1  B    0.000000
     2  F    1.315696   0.000000
     3  F    1.315700   2.278851   0.000000
     4  F    1.315691   2.278852   2.278854   0.000000
 Symmetry turned off by external request.
 Stoichiometry    BF3
 Framework group  C1[X(BF3)]
 Deg. of freedom     6
 Full point group                 C1      NOp   1
 Rotational constants (GHZ):          10.2446846          10.2446502           5.1223337

 **********************************************************************

            Population analysis using the SCF density.

 **********************************************************************

 Alpha  occ. eigenvalues --  -24.72401 -24.72401 -24.72400  -6.91708  -1.28068
 Alpha  occ. eigenvalues --   -1.24257  -1.24257  -0.61773  -0.58093  -0.58093
 Alpha  occ. eigenvalues --   -0.54213  -0.47751  -0.47751  -0.46899  -0.46899
 Alpha  occ. eigenvalues --   -0.43736
 Alpha virt. eigenvalues --    0.00119   0.01291   0.09679   0.09679   0.11683
 Alpha virt. eigenvalues --    0.22399   0.35931   0.35932   0.41504   0.45519
 Alpha virt. eigenvalues --    0.45519   0.48449   0.48449   0.56967   0.59038
 Alpha virt. eigenvalues --    0.59038   0.65138   0.67324   0.67544   0.67796
 Alpha virt. eigenvalues --    0.67796   0.76921   0.76921   0.84606   0.85599
 Alpha virt. eigenvalues --    0.85599   1.13107   1.13107   1.25617   1.53628
 Alpha virt. eigenvalues --    1.53628   1.65685   1.71528   1.71528   1.77635
 Alpha virt. eigenvalues --    1.79999   1.79999   1.86835   1.90556   1.99947
 Alpha virt. eigenvalues --    1.99948   2.12790   2.33153   2.33154   2.36147
 Alpha virt. eigenvalues --    2.36148   2.50159   2.62203   2.62203   2.65527
 Alpha virt. eigenvalues --    2.78659   2.78941   2.78941   2.85379   2.85379
 Alpha virt. eigenvalues --    2.93117   3.35466   3.42744   3.42744   3.49277
 Alpha virt. eigenvalues --    3.49277   3.80412   3.80413   3.93166   4.12996
 Alpha virt. eigenvalues --    4.12996   4.38296   4.46846   6.77580   6.80781
 Alpha virt. eigenvalues --    6.80781   6.80873   6.80907   6.80908   6.81566
 Alpha virt. eigenvalues --    6.89848   6.89848   6.92386   6.97567   6.99113
 Alpha virt. eigenvalues --    6.99113   7.00498   7.00499   7.14863   7.14863
 Alpha virt. eigenvalues --    7.24691   7.35907   7.35908   7.44227   8.19240
 Alpha virt. eigenvalues --    8.31154   8.31154   8.39734   8.39734   8.44274
 Alpha virt. eigenvalues --    8.64843   8.77527   8.77528   8.78531   8.78532
 Alpha virt. eigenvalues --    8.90283   8.90284   8.95130   9.46974  15.94136
 Alpha virt. eigenvalues --   56.93313  56.93314  57.22924
  Beta  occ. eigenvalues --  -24.72401 -24.72401 -24.72400  -6.91708  -1.28068
  Beta  occ. eigenvalues --   -1.24257  -1.24257  -0.61773  -0.58093  -0.58093
  Beta  occ. eigenvalues --   -0.54213  -0.47751  -0.47751  -0.46899  -0.46899
  Beta  occ. eigenvalues --   -0.43736
  Beta virt. eigenvalues --    0.00119   0.01291   0.09679   0.09679   0.11683
  Beta virt. eigenvalues --    0.22399   0.35931   0.35932   0.41504   0.45519
  Beta virt. eigenvalues --    0.45519   0.48449   0.48449   0.56967   0.59038
  Beta virt. eigenvalues --    0.59038   0.65138   0.67324   0.67544   0.67796
  Beta virt. eigenvalues --    0.67796   0.76921   0.76921   0.84606   0.85599
  Beta virt. eigenvalues --    0.85599   1.13107   1.13107   1.25617   1.53628
  Beta virt. eigenvalues --    1.53628   1.65685   1.71528   1.71528   1.77635
  Beta virt. eigenvalues --    1.79999   1.79999   1.86835   1.90556   1.99947
  Beta virt. eigenvalues --    1.99948   2.12790   2.33153   2.33154   2.36147
  Beta virt. eigenvalues --    2.36148   2.50159   2.62203   2.62203   2.65527
  Beta virt. eigenvalues --    2.78659   2.78941   2.78941   2.85379   2.85379
  Beta virt. eigenvalues --    2.93117   3.35466   3.42744   3.42744   3.49277
  Beta virt. eigenvalues --    3.49277   3.80412   3.80413   3.93166   4.12996
  Beta virt. eigenvalues --    4.12996   4.38296   4.46846   6.77580   6.80781
  Beta virt. eigenvalues --    6.80781   6.80873   6.80907   6.80908   6.81566
  Beta virt. eigenvalues --    6.89848   6.89848   6.92386   6.97567   6.99113
  Beta virt. eigenvalues --    6.99113   7.00498   7.00499   7.14863   7.14863
  Beta virt. eigenvalues --    7.24691   7.35907   7.35908   7.44227   8.19240
  Beta virt. eigenvalues --    8.31154   8.31154   8.39734   8.39734   8.44274
  Beta virt. eigenvalues --    8.64843   8.77527   8.77528   8.78531   8.78532
  Beta virt. eigenvalues --    8.90283   8.90284   8.95130   9.46974  15.94136
  Beta virt. eigenvalues --   56.93313  56.93314  57.22924
          Condensed to atoms (all electrons):
               1          2          3          4
     1  B    3.055133   0.428427   0.428426   0.428431
     2  F    0.428427   8.832050  -0.020308  -0.020307
     3  F    0.428426  -0.020308   8.832055  -0.020307
     4  F    0.428431  -0.020307  -0.020307   8.832038
          Atomic-Atomic Spin Densities.
               1          2          3          4
     1  B    0.000000   0.000000  -0.000000  -0.000000
     2  F    0.000000  -0.000000   0.000000  -0.000000
     3  F   -0.000000   0.000000   0.000000  -0.000000
     4  F   -0.000000  -0.000000  -0.000000   0.000000
 Mulliken charges and spin densities:
               1          2
     1  B    0.659583   0.000000
     2  F   -0.219862  -0.000000
     3  F   -0.219866  -0.000000
     4  F   -0.219855   0.000000
 Sum of Mulliken charges =  -0.00000  -0.00000
 Mulliken charges and spin densities with hydrogens summed into heavy atoms:
               1          2
     1  B    0.659583   0.000000
     2  F   -0.219862  -0.000000
     3  F   -0.219866  -0.000000
     4  F   -0.219855   0.000000
 Electronic spatial extent (au):  <R**2>=            344.7486
 Charge=             -0.0000 electrons
 Dipole moment (field-independent basis, Debye):
    X=              0.0001    Y=             -0.0000    Z=             -0.0000  Tot=              0.0001
 Quadrupole moment (field-independent basis, Debye-Ang):
   XX=            -21.9654   YY=            -21.2115   ZZ=            -18.6900
   XY=             -0.0000   XZ=             -0.0000   YZ=             -1.5716
 Traceless Quadrupole moment (field-independent basis, Debye-Ang):
   XX=             -1.3431   YY=             -0.5892   ZZ=              1.9323
   XY=             -0.0000   XZ=             -0.0000   YZ=             -1.5716
 Octapole moment (field-independent basis, Debye-Ang**2):
  XXX=            -72.3285  YYY=             -3.9821  ZZZ=              1.6978  XYY=            -21.3583
  XXY=             -1.3746  XXZ=              0.6651  XZZ=            -19.7162  YZZ=             -1.0744
  YYZ=              0.4456  XYZ=             -1.0235
 Hexadecapole moment (field-independent basis, Debye-Ang**3):
 XXXX=           -252.2526 YYYY=            -78.5842 ZZZZ=            -27.4562 XXXY=             -4.5261
 XXXZ=              2.1902 YYYX=             -4.0096 YYYZ=            -15.9533 ZZZX=              1.7911
 ZZZY=            -15.4636 XXYY=            -50.0989 XXZZ=            -40.7453 YYZZ=            -17.7265
 XXYZ=             -5.7473 YYXZ=              0.5187 ZZXY=             -1.1718
 N-N= 1.107250099175D+02 E-N=-9.947308654298D+02  KE= 3.234928582461D+02
                          Isotropic Fermi Contact Couplings
        Atom                 a.u.       MegaHertz       Gauss      10(-4) cm-1
     1  B(11)             -0.00000      -0.00000      -0.00000      -0.00000
     2  F(19)             -0.00000      -0.00000      -0.00000      -0.00000
     3  F(19)              0.00000       0.00000       0.00000       0.00000
     4  F(19)              0.00000       0.00000       0.00000       0.00000
 --------------------------------------------------------
       Center         ----  Spin Dipole Couplings  ----
                      3XX-RR        3YY-RR        3ZZ-RR
 --------------------------------------------------------
     1   Atom        0.000000      0.000000      0.000000
     2   Atom        0.000000      0.000000      0.000000
     3   Atom        0.000000      0.000000      0.000000
     4   Atom        0.000000      0.000000      0.000000
 --------------------------------------------------------
                        XY            XZ            YZ
 --------------------------------------------------------
     1   Atom        0.000000      0.000000      0.000000
     2   Atom        0.000000      0.000000      0.000000
     3   Atom        0.000000      0.000000      0.000000
     4   Atom        0.000000      0.000000      0.000000
 --------------------------------------------------------


 ---------------------------------------------------------------------------------
              Anisotropic Spin Dipole Couplings in Principal Axis System
 ---------------------------------------------------------------------------------

       Atom             a.u.   MegaHertz   Gauss  10(-4) cm-1        Axes

              Baa     0.0000     0.000     0.000     0.000  1.0000  0.0000  0.0000
     1 B(11)  Bbb     0.0000     0.000     0.000     0.000 -0.0000  1.0000  0.0000
              Bcc     0.0000     0.000     0.000     0.000  0.0000  0.0000  1.0000
 
              Baa     0.0000     0.000     0.000     0.000  1.0000  0.0000  0.0000
     2 F(19)  Bbb     0.0000     0.000     0.000     0.000 -0.0000  1.0000  0.0000
              Bcc     0.0000     0.000     0.000     0.000  0.0000  0.0000  1.0000
 
              Baa     0.0000     0.000     0.000     0.000  1.0000  0.0000  0.0000
     3 F(19)  Bbb     0.0000     0.000     0.000     0.000 -0.0000  1.0000  0.0000
              Bcc     0.0000     0.000     0.000     0.000  0.0000  0.0000  1.0000
 
              Baa     0.0000     0.000     0.000     0.000  1.0000  0.0000  0.0000
     4 F(19)  Bbb     0.0000     0.000     0.000     0.000 -0.0000  1.0000  0.0000
              Bcc     0.0000     0.000     0.000     0.000  0.0000  0.0000  1.0000
 

 ---------------------------------------------------------------------------------

 1\1\GINC-BNODE0305\FOpt\UB3LYP\def2TZVP\B1F3\JASM3285\17-Mar-2020\0\\#
  opt=(calcfc,maxcycles=200) freq ub3lyp/Def2TZVP nosymm scf=(qc,maxcyc
 le=3000) geom=connectivity\\Autogenerated with dbale for SMILES [B](F)
 (F)F_ub3lyp_Def2TZVP\\0,1\B,1.0718892362,0.0625765123,-0.0302804111\F,
 0.4140371246,-0.9647204975,-0.52317827\F,0.4140334466,1.0898750338,0.4
 626194626\F,2.3875801925,0.0625789514,-0.0302807816\\Version=ES64L-G16
 RevA.03\HF=-324.714176\S2=0.\S2-1=0.\S2A=0.\RMSD=1.626e-09\RMSF=2.276e
 -06\Dipole=0.0000206,-0.000006,-0.0000027\Quadrupole=-0.9985822,-0.438
 0588,1.4366409,-0.0000038,-0.0000005,-1.1684775\PG=C01 [X(B1F3)]\\@


      SCIENCE SANS CONSCIENCE N'EST QUE RUINE DE L'AME.

                                                  -- RABELAIS
 Job cpu time:       0 days  0 hours 10 minutes 13.3 seconds.
 Elapsed time:       0 days  0 hours  0 minutes 35.2 seconds.
 File lengths (MBytes):  RWF=     93 Int=      0 D2E=      0 Chk=      4 Scr=      2
 Normal termination of Gaussian 16 at Tue Mar 17 17:52:06 2020.
 Link1:  Proceeding to internal job step number  2.
 --------------------------------------------------------------------
 #N Geom=AllCheck Guess=TCheck SCRF=Check GenChk UB3LYP/def2TZVP Freq
 --------------------------------------------------------------------
 1/6=200,10=4,29=7,30=1,38=1,40=1/1,3;
 2/12=2,15=1,40=1/2;
 3/5=44,7=101,11=2,14=-4,25=1,30=1,70=2,71=2,74=-5,116=2,140=1/1,2,3;
 4/5=101/1;
 5/5=2,7=3000,8=3,38=6,98=1/8;
 8/6=4,10=90,11=11/1;
 11/6=1,8=1,9=11,15=111,16=1,31=1/1,2,10;
 10/6=1,31=1/2;
 6/7=2,8=2,9=2,10=2,28=1/1;
 7/8=1,10=1,25=1,30=1/1,2,3,16;
 1/6=200,10=4,30=1/3;
 99//99;
 Structure from the checkpoint file:  "/rc_scratch/jasm3285/Gau-170913.chk"
 --------------------------------------------------------------
 Autogenerated with dbale for SMILES [B](F)(F)F_ub3lyp_Def2TZVP
 --------------------------------------------------------------
 Charge =  0 Multiplicity = 1
 Redundant internal coordinates found in file.  (old form).
 B,0,1.0718892362,0.0625765123,-0.0302804111
 F,0,0.4140371246,-0.9647204975,-0.52317827
 F,0,0.4140334466,1.0898750338,0.4626194626
 F,0,2.3875801925,0.0625789514,-0.0302807816
 Recover connectivity data from disk.

 GradGradGradGradGradGradGradGradGradGradGradGradGradGradGradGradGradGrad
 Berny optimization.
 Initialization pass.
                           ----------------------------
                           !    Initial Parameters    !
                           ! (Angstroms and Degrees)  !
 --------------------------                            --------------------------
 ! Name  Definition              Value          Derivative Info.                !
 --------------------------------------------------------------------------------
 ! R1    R(1,2)                  1.3157         calculate D2E/DX2 analytically  !
 ! R2    R(1,3)                  1.3157         calculate D2E/DX2 analytically  !
 ! R3    R(1,4)                  1.3157         calculate D2E/DX2 analytically  !
 ! A1    A(2,1,3)              119.9995         calculate D2E/DX2 analytically  !
 ! A2    A(2,1,4)              120.0003         calculate D2E/DX2 analytically  !
 ! A3    A(3,1,4)              120.0002         calculate D2E/DX2 analytically  !
 ! D1    D(2,1,4,3)            180.0            calculate D2E/DX2 analytically  !
 --------------------------------------------------------------------------------
 Trust Radius=3.00D-01 FncErr=1.00D-07 GrdErr=1.00D-07 EigMax=2.50D+02 EigMin=1.00D-04
 Number of steps in this run=      2 maximum allowed number of steps=      2.
 GradGradGradGradGradGradGradGradGradGradGradGradGradGradGradGradGradGrad

                          Input orientation:                          
 ---------------------------------------------------------------------
 Center     Atomic      Atomic             Coordinates (Angstroms)
 Number     Number       Type             X           Y           Z
 ---------------------------------------------------------------------
      1          5           0        1.071889    0.062577   -0.030280
      2          9           0        0.414037   -0.964720   -0.523178
      3          9           0        0.414033    1.089875    0.462619
      4          9           0        2.387580    0.062579   -0.030281
 ---------------------------------------------------------------------
                    Distance matrix (angstroms):
                    1          2          3          4
     1  B    0.000000
     2  F    1.315696   0.000000
     3  F    1.315700   2.278851   0.000000
     4  F    1.315691   2.278852   2.278854   0.000000
 Symmetry turned off by external request.
 Stoichiometry    BF3
 Framework group  C1[X(BF3)]
 Deg. of freedom     6
 Full point group                 C1      NOp   1
 Rotational constants (GHZ):          10.2446846          10.2446502           5.1223337
 Standard basis: def2TZVP (5D, 7F)
   124 basis functions,   204 primitive gaussians,   144 cartesian basis functions
    16 alpha electrons       16 beta electrons
       nuclear repulsion energy       110.7250099175 Hartrees.
 NAtoms=    4 NActive=    4 NUniq=    4 SFac= 1.00D+00 NAtFMM=   60 NAOKFM=F Big=F
 Integral buffers will be    131072 words long.
 Raffenetti 2 integral format.
 Two-electron integral symmetry is turned off.
 One-electron integrals computed using PRISM.
   1 Symmetry operations used in ECPInt.
 ECPInt:  NShTT=     990 NPrTT=    3328 LenC2=     979 LenP2D=    2785.
 LDataN:  DoStor=T MaxTD1= 6 Len=  172
 NBasis=   124 RedAO= T EigKep=  9.17D-04  NBF=   124
 NBsUse=   124 1.00D-06 EigRej= -1.00D+00 NBFU=   124
 Initial guess from the checkpoint file:  "/rc_scratch/jasm3285/Gau-170913.chk"
 B after Tr=     0.000000    0.000000    0.000000
         Rot=    1.000000    0.000000    0.000000    0.000000 Ang=   0.00 deg.
 Initial guess <Sx>= 0.0000 <Sy>= 0.0000 <Sz>= 0.0000 <S**2>=-0.0000 S=-0.0000
 Keep R1 and R2 ints in memory in canonical form, NReq=83368818.
 SCF Done:  E(UB3LYP) =  -324.714176033     a.u. after    1 cycles
            Convg  =    0.9562D-07                     1 Fock formations.
              S**2 = -0.0000                  -V/T =  2.0038
 <Sx>= 0.0000 <Sy>= 0.0000 <Sz>= 0.0000 <S**2>=-0.0000 S=-0.0000
 <L.S>=  0.00000000000    
 Annihilation of the first spin contaminant:
 S**2 before annihilation    -0.0000,   after     0.0000
 DoSCS=F DFT=T ScalE2(SS,OS)=  1.000000  1.000000
 Range of M.O.s used for correlation:     1   124
 NBasis=   124 NAE=    16 NBE=    16 NFC=     0 NFV=     0
 NROrb=    124 NOA=    16 NOB=    16 NVA=   108 NVB=   108

 **** Warning!!: The largest alpha MO coefficient is  0.16522157D+02


 **** Warning!!: The largest beta MO coefficient is  0.16522157D+02

   1 Symmetry operations used in ECPInt.
 ECPInt:  NShTT=     990 NPrTT=    3328 LenC2=     979 LenP2D=    2785.
 LDataN:  DoStor=T MaxTD1= 7 Len=  274
 Symmetrizing basis deriv contribution to polar:
 IMax=3 JMax=2 DiffMx= 0.00D+00
 G2DrvN: will do     5 centers at a time, making    1 passes.
 Calling FoFCou, ICntrl=  3107 FMM=F I1Cent=   0 AccDes= 0.00D+00.
 End of G2Drv F.D. properties file   721 does not exist.
 End of G2Drv F.D. properties file   722 does not exist.
 End of G2Drv F.D. properties file   788 does not exist.
          IDoAtm=1111
          Differentiating once with respect to electric field.
                with respect to dipole field.
          Differentiating once with respect to nuclear coordinates.
 Keep R1 and R2 ints in memory in canonical form, NReq=83288284.
          There are    15 degrees of freedom in the 1st order CPHF.  IDoFFX=6 NUNeed=     3.
     12 vectors produced by pass  0 Test12= 2.30D-14 6.67D-09 XBig12= 1.31D+01 1.35D+00.
 AX will form    12 AO Fock derivatives at one time.
     12 vectors produced by pass  1 Test12= 2.30D-14 6.67D-09 XBig12= 2.68D+00 4.17D-01.
     12 vectors produced by pass  2 Test12= 2.30D-14 6.67D-09 XBig12= 2.29D-02 3.84D-02.
     12 vectors produced by pass  3 Test12= 2.30D-14 6.67D-09 XBig12= 7.17D-05 2.04D-03.
     12 vectors produced by pass  4 Test12= 2.30D-14 6.67D-09 XBig12= 1.05D-07 6.53D-05.
     11 vectors produced by pass  5 Test12= 2.30D-14 6.67D-09 XBig12= 3.75D-10 3.22D-06.
      5 vectors produced by pass  6 Test12= 2.30D-14 6.67D-09 XBig12= 2.76D-12 3.76D-07.
      1 vectors produced by pass  7 Test12= 2.30D-14 6.67D-09 XBig12= 6.95D-15 1.98D-08.
 InvSVY:  IOpt=1 It=  1 EMax= 1.11D-15
 Solved reduced A of dimension    77 with    12 vectors.
 Isotropic polarizability for W=    0.000000       14.42 Bohr**3.
 End of Minotr F.D. properties file   721 does not exist.
 End of Minotr F.D. properties file   722 does not exist.
 End of Minotr F.D. properties file   788 does not exist.

 **********************************************************************

            Population analysis using the SCF density.

 **********************************************************************

 Alpha  occ. eigenvalues --  -24.72401 -24.72401 -24.72400  -6.91708  -1.28068
 Alpha  occ. eigenvalues --   -1.24257  -1.24257  -0.61773  -0.58093  -0.58093
 Alpha  occ. eigenvalues --   -0.54213  -0.47751  -0.47751  -0.46899  -0.46899
 Alpha  occ. eigenvalues --   -0.43736
 Alpha virt. eigenvalues --    0.00119   0.01291   0.09679   0.09679   0.11683
 Alpha virt. eigenvalues --    0.22399   0.35931   0.35932   0.41504   0.45519
 Alpha virt. eigenvalues --    0.45519   0.48449   0.48449   0.56967   0.59038
 Alpha virt. eigenvalues --    0.59038   0.65138   0.67324   0.67544   0.67796
 Alpha virt. eigenvalues --    0.67796   0.76921   0.76921   0.84606   0.85599
 Alpha virt. eigenvalues --    0.85599   1.13107   1.13107   1.25617   1.53628
 Alpha virt. eigenvalues --    1.53628   1.65685   1.71528   1.71528   1.77635
 Alpha virt. eigenvalues --    1.79999   1.79999   1.86835   1.90556   1.99947
 Alpha virt. eigenvalues --    1.99948   2.12790   2.33153   2.33154   2.36147
 Alpha virt. eigenvalues --    2.36148   2.50159   2.62203   2.62203   2.65527
 Alpha virt. eigenvalues --    2.78659   2.78941   2.78941   2.85379   2.85379
 Alpha virt. eigenvalues --    2.93117   3.35466   3.42744   3.42744   3.49277
 Alpha virt. eigenvalues --    3.49277   3.80412   3.80413   3.93166   4.12996
 Alpha virt. eigenvalues --    4.12996   4.38296   4.46846   6.77580   6.80781
 Alpha virt. eigenvalues --    6.80781   6.80873   6.80907   6.80908   6.81566
 Alpha virt. eigenvalues --    6.89848   6.89848   6.92386   6.97567   6.99113
 Alpha virt. eigenvalues --    6.99113   7.00498   7.00499   7.14863   7.14863
 Alpha virt. eigenvalues --    7.24691   7.35907   7.35908   7.44227   8.19240
 Alpha virt. eigenvalues --    8.31154   8.31154   8.39734   8.39734   8.44274
 Alpha virt. eigenvalues --    8.64843   8.77527   8.77528   8.78531   8.78532
 Alpha virt. eigenvalues --    8.90283   8.90284   8.95130   9.46974  15.94136
 Alpha virt. eigenvalues --   56.93313  56.93314  57.22924
  Beta  occ. eigenvalues --  -24.72401 -24.72401 -24.72400  -6.91708  -1.28068
  Beta  occ. eigenvalues --   -1.24257  -1.24257  -0.61773  -0.58093  -0.58093
  Beta  occ. eigenvalues --   -0.54213  -0.47751  -0.47751  -0.46899  -0.46899
  Beta  occ. eigenvalues --   -0.43736
  Beta virt. eigenvalues --    0.00119   0.01291   0.09679   0.09679   0.11683
  Beta virt. eigenvalues --    0.22399   0.35931   0.35932   0.41504   0.45519
  Beta virt. eigenvalues --    0.45519   0.48449   0.48449   0.56967   0.59038
  Beta virt. eigenvalues --    0.59038   0.65138   0.67324   0.67544   0.67796
  Beta virt. eigenvalues --    0.67796   0.76921   0.76921   0.84606   0.85599
  Beta virt. eigenvalues --    0.85599   1.13107   1.13107   1.25617   1.53628
  Beta virt. eigenvalues --    1.53628   1.65685   1.71528   1.71528   1.77635
  Beta virt. eigenvalues --    1.79999   1.79999   1.86835   1.90556   1.99947
  Beta virt. eigenvalues --    1.99948   2.12790   2.33153   2.33154   2.36147
  Beta virt. eigenvalues --    2.36148   2.50159   2.62203   2.62203   2.65527
  Beta virt. eigenvalues --    2.78659   2.78941   2.78941   2.85379   2.85379
  Beta virt. eigenvalues --    2.93117   3.35466   3.42744   3.42744   3.49277
  Beta virt. eigenvalues --    3.49277   3.80412   3.80413   3.93166   4.12996
  Beta virt. eigenvalues --    4.12996   4.38296   4.46846   6.77580   6.80781
  Beta virt. eigenvalues --    6.80781   6.80873   6.80907   6.80908   6.81566
  Beta virt. eigenvalues --    6.89848   6.89848   6.92386   6.97567   6.99113
  Beta virt. eigenvalues --    6.99113   7.00498   7.00499   7.14863   7.14863
  Beta virt. eigenvalues --    7.24691   7.35907   7.35908   7.44227   8.19240
  Beta virt. eigenvalues --    8.31154   8.31154   8.39734   8.39734   8.44274
  Beta virt. eigenvalues --    8.64843   8.77527   8.77528   8.78531   8.78532
  Beta virt. eigenvalues --    8.90283   8.90284   8.95130   9.46974  15.94136
  Beta virt. eigenvalues --   56.93313  56.93314  57.22924
          Condensed to atoms (all electrons):
               1          2          3          4
     1  B    3.055133   0.428427   0.428426   0.428431
     2  F    0.428427   8.832050  -0.020308  -0.020307
     3  F    0.428426  -0.020308   8.832055  -0.020307
     4  F    0.428431  -0.020307  -0.020307   8.832038
          Atomic-Atomic Spin Densities.
               1          2          3          4
     1  B   -0.000000  -0.000000  -0.000000  -0.000000
     2  F   -0.000000   0.000000   0.000000  -0.000000
     3  F   -0.000000   0.000000   0.000000   0.000000
     4  F   -0.000000  -0.000000   0.000000   0.000000
 Mulliken charges and spin densities:
               1          2
     1  B    0.659583  -0.000000
     2  F   -0.219862   0.000000
     3  F   -0.219866   0.000000
     4  F   -0.219855   0.000000
 Sum of Mulliken charges =  -0.00000  -0.00000
 Mulliken charges and spin densities with hydrogens summed into heavy atoms:
               1          2
     1  B    0.659583  -0.000000
     2  F   -0.219862   0.000000
     3  F   -0.219866   0.000000
     4  F   -0.219855   0.000000
 APT charges:
               1
     1  B    1.670383
     2  F   -0.556795
     3  F   -0.556796
     4  F   -0.556791
 Sum of APT charges =   0.00000
 APT charges with hydrogens summed into heavy atoms:
               1
     1  B    1.670383
     2  F   -0.556795
     3  F   -0.556796
     4  F   -0.556791
 Electronic spatial extent (au):  <R**2>=            344.7486
 Charge=             -0.0000 electrons
 Dipole moment (field-independent basis, Debye):
    X=              0.0001    Y=             -0.0000    Z=             -0.0000  Tot=              0.0001
 Quadrupole moment (field-independent basis, Debye-Ang):
   XX=            -21.9654   YY=            -21.2115   ZZ=            -18.6900
   XY=             -0.0000   XZ=             -0.0000   YZ=             -1.5716
 Traceless Quadrupole moment (field-independent basis, Debye-Ang):
   XX=             -1.3431   YY=             -0.5892   ZZ=              1.9323
   XY=             -0.0000   XZ=             -0.0000   YZ=             -1.5716
 Octapole moment (field-independent basis, Debye-Ang**2):
  XXX=            -72.3285  YYY=             -3.9821  ZZZ=              1.6978  XYY=            -21.3583
  XXY=             -1.3746  XXZ=              0.6651  XZZ=            -19.7162  YZZ=             -1.0744
  YYZ=              0.4456  XYZ=             -1.0235
 Hexadecapole moment (field-independent basis, Debye-Ang**3):
 XXXX=           -252.2526 YYYY=            -78.5842 ZZZZ=            -27.4562 XXXY=             -4.5261
 XXXZ=              2.1902 YYYX=             -4.0096 YYYZ=            -15.9533 ZZZX=              1.7911
 ZZZY=            -15.4636 XXYY=            -50.0989 XXZZ=            -40.7453 YYZZ=            -17.7265
 XXYZ=             -5.7473 YYXZ=              0.5187 ZZXY=             -1.1718
 N-N= 1.107250099175D+02 E-N=-9.947308654298D+02  KE= 3.234928582461D+02
  Exact polarizability:  15.906  -0.000  15.070  -0.000   1.742  12.276
 Approx polarizability:  19.694  -0.000  18.720  -0.000   2.030  15.463
                          Isotropic Fermi Contact Couplings
        Atom                 a.u.       MegaHertz       Gauss      10(-4) cm-1
     1  B(11)              0.00000       0.00000       0.00000       0.00000
     2  F(19)             -0.00000      -0.00000      -0.00000      -0.00000
     3  F(19)              0.00000       0.00000       0.00000       0.00000
     4  F(19)             -0.00000      -0.00000      -0.00000      -0.00000
 --------------------------------------------------------
       Center         ----  Spin Dipole Couplings  ----
                      3XX-RR        3YY-RR        3ZZ-RR
 --------------------------------------------------------
     1   Atom        0.000000      0.000000      0.000000
     2   Atom        0.000000      0.000000      0.000000
     3   Atom        0.000000      0.000000      0.000000
     4   Atom        0.000000      0.000000      0.000000
 --------------------------------------------------------
                        XY            XZ            YZ
 --------------------------------------------------------
     1   Atom        0.000000      0.000000      0.000000
     2   Atom        0.000000      0.000000      0.000000
     3   Atom        0.000000      0.000000      0.000000
     4   Atom        0.000000      0.000000      0.000000
 --------------------------------------------------------


 ---------------------------------------------------------------------------------
              Anisotropic Spin Dipole Couplings in Principal Axis System
 ---------------------------------------------------------------------------------

       Atom             a.u.   MegaHertz   Gauss  10(-4) cm-1        Axes

              Baa     0.0000     0.000     0.000     0.000  1.0000  0.0000  0.0000
     1 B(11)  Bbb     0.0000     0.000     0.000     0.000 -0.0000  1.0000  0.0000
              Bcc     0.0000     0.000     0.000     0.000  0.0000  0.0000  1.0000
 
              Baa     0.0000     0.000     0.000     0.000  1.0000  0.0000  0.0000
     2 F(19)  Bbb     0.0000     0.000     0.000     0.000 -0.0000  1.0000  0.0000
              Bcc     0.0000     0.000     0.000     0.000  0.0000  0.0000  1.0000
 
              Baa     0.0000     0.000     0.000     0.000  1.0000  0.0000  0.0000
     3 F(19)  Bbb     0.0000     0.000     0.000     0.000 -0.0000  1.0000  0.0000
              Bcc     0.0000     0.000     0.000     0.000  0.0000  0.0000  1.0000
 
              Baa     0.0000     0.000     0.000     0.000  1.0000  0.0000  0.0000
     4 F(19)  Bbb     0.0000     0.000     0.000     0.000 -0.0000  1.0000  0.0000
              Bcc     0.0000     0.000     0.000     0.000  0.0000  0.0000  1.0000
 

 ---------------------------------------------------------------------------------

   1 Symmetry operations used in ECPInt.
 ECPInt:  NShTT=     990 NPrTT=    3328 LenC2=     979 LenP2D=    2785.
 LDataN:  DoStor=T MaxTD1= 8 Len=  415
 Calling FoFJK, ICntrl=    100127 FMM=F ISym2X=0 I1Cent= 0 IOpClX= 1 NMat=1 NMatS=1 NMatT=0.
 Full mass-weighted force constant matrix:
 Low frequencies ---   -0.0011   -0.0002    0.0017    2.5923    3.6436    4.4210
 Low frequencies ---  471.7894  471.8132  682.2832
 Diagonal vibrational polarizability:
        7.0635396       6.7812267       5.8389934
 Harmonic frequencies (cm**-1), IR intensities (KM/Mole), Raman scattering
 activities (A**4/AMU), depolarization ratios for plane and unpolarized
 incident light, reduced masses (AMU), force constants (mDyne/A),
 and normal coordinates:
                      1                      2                      3
                      A                      A                      A
 Frequencies --    471.7894               471.8132               682.2832
 Red. masses --     17.8788                17.8789                11.8135
 Frc consts  --      2.3447                 2.3449                 3.2401
 IR Inten    --     12.5440                12.5407                96.1238
  Atom  AN      X      Y      Z        X      Y      Z        X      Y      Z
     1   5     0.37  -0.00  -0.00    -0.00  -0.34  -0.16     0.00  -0.41   0.86
     2   9    -0.34   0.41   0.20    -0.46  -0.18  -0.08    -0.00   0.08  -0.17
     3   9    -0.33  -0.42  -0.20     0.46  -0.17  -0.08     0.00   0.08  -0.17
     4   9     0.46   0.00   0.00    -0.00   0.54   0.26    -0.00   0.08  -0.17
                      4                      5                      6
                      A                      A                      A
 Frequencies --    885.1967              1449.9127              1449.9423
 Red. masses --     18.9984                12.2922                12.2922
 Frc consts  --      8.7710                15.2252                15.2258
 IR Inten    --      0.0000               433.3389               433.3321
  Atom  AN      X      Y      Z        X      Y      Z        X      Y      Z
     1   5     0.00  -0.00  -0.00    -0.18   0.81   0.39     0.90   0.16   0.08
     2   9    -0.29  -0.45  -0.22    -0.11  -0.20  -0.10    -0.13  -0.16  -0.08
     3   9    -0.29   0.45   0.22     0.15  -0.24  -0.12    -0.08   0.07   0.03
     4   9     0.58   0.00   0.00     0.06  -0.02  -0.01    -0.32  -0.00  -0.00

 -------------------
 - Thermochemistry -
 -------------------
 Temperature   298.150 Kelvin.  Pressure   1.00000 Atm.
 Atom     1 has atomic number  5 and mass  11.00931
 Atom     2 has atomic number  9 and mass  18.99840
 Atom     3 has atomic number  9 and mass  18.99840
 Atom     4 has atomic number  9 and mass  18.99840
 Molecular mass:    68.00452 amu.
 Principal axes and moments of inertia in atomic units:
                           1         2         3
     Eigenvalues --   176.16367 176.16426 352.32793
           X            0.92987   0.36788   0.00000
           Y           -0.33168   0.83837  -0.43259
           Z           -0.15914   0.40225   0.90159
 This molecule is an asymmetric top.
 Rotational symmetry number  1.
 Rotational temperatures (Kelvin)      0.49167     0.49167     0.24583
 Rotational constants (GHZ):          10.24468    10.24465     5.12233
 Zero-point vibrational energy      32364.6 (Joules/Mol)
                                    7.73532 (Kcal/Mol)
 Warning -- explicit consideration of   2 degrees of freedom as
           vibrations may cause significant error
 Vibrational temperatures:    678.80   678.83   981.65  1273.60  2086.10
          (Kelvin)           2086.14
 
 Zero-point correction=                           0.012327 (Hartree/Particle)
 Thermal correction to Energy=                    0.015840
 Thermal correction to Enthalpy=                  0.016785
 Thermal correction to Gibbs Free Energy=        -0.013835
 Sum of electronic and zero-point Energies=           -324.701849
 Sum of electronic and thermal Energies=              -324.698336
 Sum of electronic and thermal Enthalpies=            -324.697391
 Sum of electronic and thermal Free Energies=         -324.728011
 
                     E (Thermal)             CV                S
                      KCal/Mol        Cal/Mol-Kelvin    Cal/Mol-Kelvin
 Total                    9.940             10.149             64.445
 Electronic               0.000              0.000              0.000
 Translational            0.889              2.981             38.569
 Rotational               0.889              2.981             23.907
 Vibrational              8.163              4.188              1.970
 Vibration     1          0.829              1.313              0.733
 Vibration     2          0.829              1.313              0.732
                       Q            Log10(Q)             Ln(Q)
 Total Bot       0.231129D+07          6.363854         14.653316
 Total V=0       0.108115D+13         12.033886         27.709047
 Vib (Bot)       0.280129D-05         -5.552642        -12.785432
 Vib (Bot)    1  0.356980D+00         -0.447356         -1.030075
 Vib (Bot)    2  0.356955D+00         -0.447387         -1.030146
 Vib (V=0)       0.131036D+01          0.117389          0.270299
 Vib (V=0)    1  0.111436D+01          0.047024          0.108278
 Vib (V=0)    2  0.111434D+01          0.047019          0.108265
 Electronic      0.100000D+01          0.000000          0.000000
 Translational   0.220425D+08          7.343261         16.908482
 Rotational      0.374314D+05          4.573236         10.530266
 -------------------------------------------------------------------
 Center     Atomic                   Forces (Hartrees/Bohr)
 Number     Number              X              Y              Z
 -------------------------------------------------------------------
      1        5          -0.000005473    0.000002264    0.000001061
      2        9           0.000000761    0.000000917    0.000000580
      3        9           0.000002270   -0.000003212   -0.000001664
      4        9           0.000002442    0.000000031    0.000000023
 -------------------------------------------------------------------
 Cartesian Forces:  Max     0.000005473 RMS     0.000002276
 FormGI is forming the generalized inverse of G from B-inverse, IUseBI=4.

 GradGradGradGradGradGradGradGradGradGradGradGradGradGradGradGradGradGrad
 Berny optimization.
 Internal  Forces:  Max     0.000004266 RMS     0.000001926
 Search for a local minimum.
 Step number   1 out of a maximum of    2
 All quantities printed in internal units (Hartrees-Bohrs-Radians)
 Second derivative matrix not updated -- analytic derivatives used.
 The second derivative matrix:
                          R1        R2        R3        A1        A2
           R1           0.47174
           R2           0.04581   0.47173
           R3           0.04581   0.04581   0.47176
           A1           0.01843   0.01843  -0.03685   0.13108
           A2           0.01843  -0.03685   0.01843  -0.06554   0.13109
           A3          -0.03685   0.01843   0.01843  -0.06554  -0.06555
           D1           0.00000  -0.00000   0.00000  -0.00000  -0.00000
                          A3        D1
           A3           0.13109
           D1           0.00000   0.08373
 ITU=  0
     Eigenvalues ---    0.08373   0.18398   0.18400   0.43855   0.43857
     Eigenvalues ---    0.56336
 Angle between quadratic step and forces=  18.46 degrees.
 Linear search not attempted -- first point.
 Iteration  1 RMS(Cart)=  0.00000309 RMS(Int)=  0.00000000
 Iteration  2 RMS(Cart)=  0.00000000 RMS(Int)=  0.00000000
 Variable       Old X    -DE/DX   Delta X   Delta X   Delta X     New X
                                 (Linear)    (Quad)   (Total)
    R1        2.48631  -0.00000   0.00000  -0.00000  -0.00000   2.48630
    R2        2.48631  -0.00000   0.00000  -0.00001  -0.00001   2.48630
    R3        2.48630   0.00000   0.00000   0.00001   0.00001   2.48630
    A1        2.09439   0.00000   0.00000   0.00000   0.00000   2.09439
    A2        2.09440  -0.00000   0.00000  -0.00000  -0.00000   2.09440
    A3        2.09440  -0.00000   0.00000  -0.00000  -0.00000   2.09440
    D1        3.14159   0.00000   0.00000   0.00000   0.00000   3.14159
         Item               Value     Threshold  Converged?
 Maximum Force            0.000004     0.000450     YES
 RMS     Force            0.000002     0.000300     YES
 Maximum Displacement     0.000005     0.001800     YES
 RMS     Displacement     0.000003     0.001200     YES
 Predicted change in Energy=-3.141034D-11
 Optimization completed.
    -- Stationary point found.
                           ----------------------------
                           !   Optimized Parameters   !
                           ! (Angstroms and Degrees)  !
 --------------------------                            --------------------------
 ! Name  Definition              Value          Derivative Info.                !
 --------------------------------------------------------------------------------
 ! R1    R(1,2)                  1.3157         -DE/DX =    0.0                 !
 ! R2    R(1,3)                  1.3157         -DE/DX =    0.0                 !
 ! R3    R(1,4)                  1.3157         -DE/DX =    0.0                 !
 ! A1    A(2,1,3)              119.9995         -DE/DX =    0.0                 !
 ! A2    A(2,1,4)              120.0003         -DE/DX =    0.0                 !
 ! A3    A(3,1,4)              120.0002         -DE/DX =    0.0                 !
 ! D1    D(2,1,4,3)            180.0            -DE/DX =    0.0                 !
 --------------------------------------------------------------------------------
 GradGradGradGradGradGradGradGradGradGradGradGradGradGradGradGradGradGrad


 ----------------------------------------------------------------------

 Electric dipole moment (input orientation):
 (Debye = 10**-18 statcoulomb cm , SI units = C m)
                  (au)            (Debye)         (10**-30 SI)
   Tot        0.205995D-04      0.523588D-04      0.174650D-03
   x          0.205995D-04      0.523588D-04      0.174650D-03
   y          0.000000D+00      0.000000D+00      0.000000D+00
   z          0.000000D+00      0.000000D+00      0.000000D+00

 Dipole polarizability, Alpha (input orientation).
 (esu units = cm**3 , SI units = C**2 m**2 J**-1)
 Alpha(0;0):
               (au)            (10**-24 esu)      (10**-40 SI)
   iso        0.144174D+02      0.213644D+01      0.237711D+01
   aniso      0.446544D+01      0.661710D+00      0.736251D+00
   xx         0.159060D+02      0.235702D+01      0.262254D+01
   yx         0.000000D+00      0.000000D+00      0.000000D+00
   yy         0.150702D+02      0.223317D+01      0.248474D+01
   zx         0.000000D+00      0.000000D+00      0.000000D+00
   zy         0.174157D+01      0.258073D+00      0.287145D+00
   zz         0.122761D+02      0.181912D+01      0.202405D+01

 ----------------------------------------------------------------------

 Dipole orientation:
     5          0.36885052         -0.60245764          1.90294892
     9         -1.21733915          1.23859647          1.37736514
     9          1.46955650         -1.85873558          0.06122045
     9          0.85433265         -1.18723238          4.27022822

 Electric dipole moment (dipole orientation):
 (Debye = 10**-18 statcoulomb cm , SI units = C m)
                  (au)            (Debye)         (10**-30 SI)
   Tot        0.216352D-04      0.549911D-04      0.183431D-03
   x          0.000000D+00      0.000000D+00      0.000000D+00
   y          0.000000D+00      0.000000D+00      0.000000D+00
   z          0.216352D-04      0.549911D-04      0.183431D-03

 Dipole polarizability, Alpha (dipole orientation).
 (esu units = cm**3 , SI units = C**2 m**2 J**-1)
 Alpha(0;0):
               (au)            (10**-24 esu)      (10**-40 SI)
   iso        0.144174D+02      0.213644D+01      0.237711D+01
   aniso      0.446544D+01      0.661710D+00      0.736251D+00
   xx         0.133490D+02      0.197812D+01      0.220096D+01
   yx        -0.220893D+01     -0.327330D+00     -0.364204D+00
   yy         0.139974D+02      0.207420D+01      0.230786D+01
   zx        -0.212860D-01     -0.315425D-02     -0.350958D-02
   zy        -0.184459D-01     -0.273340D-02     -0.304132D-02
   zz         0.159058D+02      0.235699D+01      0.262251D+01

 ----------------------------------------------------------------------
 1\1\GINC-BNODE0305\Freq\UB3LYP\def2TZVP\B1F3\JASM3285\17-Mar-2020\0\\#
 N Geom=AllCheck Guess=TCheck SCRF=Check GenChk UB3LYP/def2TZVP Freq\\A
 utogenerated with dbale for SMILES [B](F)(F)F_ub3lyp_Def2TZVP\\0,1\B,1
 .0718892362,0.0625765123,-0.0302804111\F,0.4140371246,-0.9647204975,-0
 .52317827\F,0.4140334466,1.0898750338,0.4626194626\F,2.3875801925,0.06
 25789514,-0.0302807816\\Version=ES64L-G16RevA.03\HF=-324.714176\S2=0.\
 S2-1=0.\S2A=0.\RMSD=1.626e-09\RMSF=2.276e-06\ZeroPoint=0.012327\Therma
 l=0.0158404\Dipole=0.0000206,-0.000006,-0.0000027\DipoleDeriv=2.028656
 5,0.0000007,-0.0000009,0.0000007,1.8275261,0.4192037,-0.0000009,0.4192
 071,1.1549652,-0.5422144,-0.2092829,-0.1004136,-0.2092688,-0.718109,-0
 .1919991,-0.1003981,-0.1919977,-0.4100627,-0.5422159,0.2092828,0.10041
 41,0.2092687,-0.718108,-0.1919982,0.1003986,-0.1919967,-0.4100643,-0.9
 442262,-0.0000007,0.0000004,-0.0000006,-0.3913092,-0.0352064,0.0000004
 ,-0.0352127,-0.3348382\Polar=15.9059726,-0.0000059,15.0701925,-0.00000
 78,1.741566,12.2760589\Quadrupole=-0.9985822,-0.4380588,1.4366409,-0.0
 000038,-0.0000005,-1.1684775\PG=C01 [X(B1F3)]\NImag=0\\0.66651087,0.00
 000486,0.57219439,0.00000177,0.19654262,0.25684626,-0.13953581,-0.1290
 2558,-0.06191156,0.16564745,-0.12902995,-0.25789738,-0.09773900,0.1593
 2904,0.30390704,-0.06191375,-0.09773872,-0.10107661,0.07645059,0.13714
 327,0.08386647,-0.13953431,0.12902137,0.06190971,0.01604848,-0.0045527
 8,-0.00218430,0.16564581,0.12902567,-0.25789080,-0.09773564,0.00455302
 ,-0.04666350,-0.03105328,-0.15932474,0.30390034,0.06191186,-0.09773536
 ,-0.10107608,0.00218442,-0.03105327,0.00315816,-0.07644883,0.13713987,
 0.08386604,-0.38744075,-0.00000064,0.00000008,-0.04216013,-0.02574631,
 -0.01235254,-0.04215998,0.02574605,0.01235255,0.47176086,-0.00000058,-
 0.05640621,-0.00106798,-0.03485648,0.00065385,-0.00835126,0.03485616,0
 .00065396,-0.00835124,0.00000090,0.05509840,0.00000011,-0.00106854,-0.
 05469357,-0.01672345,-0.00835099,0.01405198,0.01672343,-0.00835095,0.0
 1405188,-0.00000009,0.01777048,0.02658971\\0.00000547,-0.00000226,-0.0
 0000106,-0.00000076,-0.00000092,-0.00000058,-0.00000227,0.00000321,0.0
 0000166,-0.00000244,-0.00000003,-0.00000002\\\@


 I (ERNEST RUTHERFORD) CAME INTO THE ROOM, WHICH WAS HALF DARK, AND PRESENTLY
 SPOTTED LORD KELVIN IN THE AUDIENCE AND REALIZED I WAS IN TROUBLE AT
 THE LAST PART OF MY SPEECH DEALING THE AGE OF THE EARTH, WHERE MY VIEWS
 CONFLICTED WITH HIS.  TO MY RELIEF KELVIN FELL FAST ASLEEP, BUT AS I CAME
 TO THE IMPORTANT POINT, I SAW THE OLD BIRD SIT UP AND COCK A BALEFUL GLANCE
 AT ME! THEN A SUDDEN INSPIRATION CAME AND I SAID LORD KELVIN HAD LIMITED
 THE AGE OF THE EARTH PROVIDED NO NEW SOURCE WAS DISCOVERED. THAT
 PROPHETIC UTTERANCE REFERS TO WHAT WE ARE NOW CONSIDERING TONIGHT, RADIUM!
 BEHOLD!  THE OLD BOY BEAMED UPON ME.
 Job cpu time:       0 days  0 hours  4 minutes 34.8 seconds.
 Elapsed time:       0 days  0 hours  0 minutes 12.1 seconds.
 File lengths (MBytes):  RWF=     93 Int=      0 D2E=      0 Chk=      4 Scr=      2
 Normal termination of Gaussian 16 at Tue Mar 17 17:52:18 2020.
