 Entering Gaussian System, Link 0=g16
 Input=bz.com
 Output=bz.log
 Initial command:
 /curc/sw/gaussian/16/g16/l1.exe "/rc_scratch/jasm3285/Gau-67663.inp" -scrdir="/rc_scratch/jasm3285/"
 Entering Link 1 = /curc/sw/gaussian/16/g16/l1.exe PID=     67666.
  
 Copyright (c) 1988,1990,1992,1993,1995,1998,2003,2009,2016,
            Gaussian, Inc.  All Rights Reserved.
  
 This is part of the Gaussian(R) 16 program.  It is based on
 the Gaussian(R) 09 system (copyright 2009, Gaussian, Inc.),
 the Gaussian(R) 03 system (copyright 2003, Gaussian, Inc.),
 the Gaussian(R) 98 system (copyright 1998, Gaussian, Inc.),
 the Gaussian(R) 94 system (copyright 1995, Gaussian, Inc.),
 the Gaussian 92(TM) system (copyright 1992, Gaussian, Inc.),
 the Gaussian 90(TM) system (copyright 1990, Gaussian, Inc.),
 the Gaussian 88(TM) system (copyright 1988, Gaussian, Inc.),
 the Gaussian 86(TM) system (copyright 1986, Carnegie Mellon
 University), and the Gaussian 82(TM) system (copyright 1983,
 Carnegie Mellon University). Gaussian is a federally registered
 trademark of Gaussian, Inc.
  
 This software contains proprietary and confidential information,
 including trade secrets, belonging to Gaussian, Inc.
  
 This software is provided under written license and may be
 used, copied, transmitted, or stored only in accord with that
 written license.
  
 The following legend is applicable only to US Government
 contracts under FAR:
  
                    RESTRICTED RIGHTS LEGEND
  
 Use, reproduction and disclosure by the US Government is
 subject to restrictions as set forth in subparagraphs (a)
 and (c) of the Commercial Computer Software - Restricted
 Rights clause in FAR 52.227-19.
  
 Gaussian, Inc.
 340 Quinnipiac St., Bldg. 40, Wallingford CT 06492
  
  
 ---------------------------------------------------------------
 Warning -- This program may not be used in any manner that
 competes with the business of Gaussian, Inc. or will provide
 assistance to any competitor of Gaussian, Inc.  The licensee
 of this program is prohibited from giving any competitor of
 Gaussian, Inc. access to this program.  By using this program,
 the user acknowledges that Gaussian, Inc. is engaged in the
 business of creating and licensing software in the field of
 computational chemistry and represents and warrants to the
 licensee that it is not a competitor of Gaussian, Inc. and that
 it will not use this program in any manner prohibited above.
 ---------------------------------------------------------------
  

 Cite this work as:
 Gaussian 16, Revision A.03,
 M. J. Frisch, G. W. Trucks, H. B. Schlegel, G. E. Scuseria, 
 M. A. Robb, J. R. Cheeseman, G. Scalmani, V. Barone, 
 G. A. Petersson, H. Nakatsuji, X. Li, M. Caricato, A. V. Marenich, 
 J. Bloino, B. G. Janesko, R. Gomperts, B. Mennucci, H. P. Hratchian, 
 J. V. Ortiz, A. F. Izmaylov, J. L. Sonnenberg, D. Williams-Young, 
 F. Ding, F. Lipparini, F. Egidi, J. Goings, B. Peng, A. Petrone, 
 T. Henderson, D. Ranasinghe, V. G. Zakrzewski, J. Gao, N. Rega, 
 G. Zheng, W. Liang, M. Hada, M. Ehara, K. Toyota, R. Fukuda, 
 J. Hasegawa, M. Ishida, T. Nakajima, Y. Honda, O. Kitao, H. Nakai, 
 T. Vreven, K. Throssell, J. A. Montgomery, Jr., J. E. Peralta, 
 F. Ogliaro, M. J. Bearpark, J. J. Heyd, E. N. Brothers, K. N. Kudin, 
 V. N. Staroverov, T. A. Keith, R. Kobayashi, J. Normand, 
 K. Raghavachari, A. P. Rendell, J. C. Burant, S. S. Iyengar, 
 J. Tomasi, M. Cossi, J. M. Millam, M. Klene, C. Adamo, R. Cammi, 
 J. W. Ochterski, R. L. Martin, K. Morokuma, O. Farkas, 
 J. B. Foresman, and D. J. Fox, Gaussian, Inc., Wallingford CT, 2016.
 
 ******************************************
 Gaussian 16:  ES64L-G16RevA.03 25-Dec-2016
                 9-Jan-2020 
 ******************************************
 ----------------------------------
 # freq hf/sto-3g geom=connectivity
 ----------------------------------
 1/10=4,30=1,38=1,57=2/1,3;
 2/12=2,17=6,18=5,40=1/2;
 3/6=3,11=9,25=1,30=1,71=2,140=1/1,2,3;
 4//1;
 5/5=2,38=5,98=1/2;
 8/6=4,10=90,11=11/1;
 10/13=10,15=4/2;
 11/6=3,8=1,9=11,15=111,16=1/1,2,10;
 10/6=1/2;
 6/7=2,8=2,9=2,10=2,28=1/1;
 7/8=1,10=1,25=1/1,2,3,16;
 1/10=4,30=1/3;
 99//99;
 -------------------
 Title Card Required
 -------------------
 Symbolic Z-matrix:
 Charge =  0 Multiplicity = 1
 C                     1.21365  -0.7007    0. 
 C                     1.21365   0.7007    0. 
 C                     0.        1.4014    0. 
 C                    -1.21365   0.7007    0. 
 C                    -1.21365  -0.7007    0. 
 C                     0.       -1.4014    0. 
 H                     2.1403   -1.2357    0. 
 H                     2.1403    1.2357    0. 
 H                     0.        2.4714    0. 
 H                    -2.1403    1.2357    0. 
 H                    -2.1403   -1.2357    0. 
 H                     0.       -2.4714    0. 
 

 GradGradGradGradGradGradGradGradGradGradGradGradGradGradGradGradGradGrad
 Berny optimization.
 Initialization pass.
 Trust Radius=3.00D-01 FncErr=1.00D-07 GrdErr=1.00D-07 EigMax=2.50D+02 EigMin=1.00D-04
 Number of steps in this run=      2 maximum allowed number of steps=      2.
 GradGradGradGradGradGradGradGradGradGradGradGradGradGradGradGradGradGrad

                          Input orientation:                          
 ---------------------------------------------------------------------
 Center     Atomic      Atomic             Coordinates (Angstroms)
 Number     Number       Type             X           Y           Z
 ---------------------------------------------------------------------
      1          6           0        1.213648   -0.700700    0.000000
      2          6           0        1.213648    0.700700    0.000000
      3          6           0        0.000000    1.401400    0.000000
      4          6           0       -1.213648    0.700700    0.000000
      5          6           0       -1.213648   -0.700700    0.000000
      6          6           0        0.000000   -1.401400    0.000000
      7          1           0        2.140295   -1.235700    0.000000
      8          1           0        2.140295    1.235700    0.000000
      9          1           0        0.000000    2.471400    0.000000
     10          1           0       -2.140295    1.235700    0.000000
     11          1           0       -2.140295   -1.235700    0.000000
     12          1           0        0.000000   -2.471400    0.000000
 ---------------------------------------------------------------------
                    Distance matrix (angstroms):
                    1          2          3          4          5
     1  C    0.000000
     2  C    1.401400   0.000000
     3  C    2.427296   1.401400   0.000000
     4  C    2.802800   2.427296   1.401400   0.000000
     5  C    2.427296   2.802800   2.427296   1.401400   0.000000
     6  C    1.401400   2.427296   2.802800   2.427296   1.401400
     7  H    1.070000   2.146700   3.396345   3.872800   3.396345
     8  H    2.146700   1.070000   2.146700   3.396345   3.872800
     9  H    3.396345   2.146700   1.070000   2.146700   3.396345
    10  H    3.872800   3.396345   2.146700   1.070000   2.146700
    11  H    3.396345   3.872800   3.396345   2.146700   1.070000
    12  H    2.146700   3.396345   3.872800   3.396345   2.146700
                    6          7          8          9         10
     6  C    0.000000
     7  H    2.146700   0.000000
     8  H    3.396345   2.471400   0.000000
     9  H    3.872800   4.280590   2.471400   0.000000
    10  H    3.396345   4.942800   4.280590   2.471400   0.000000
    11  H    2.146700   4.280590   4.942800   4.280590   2.471400
    12  H    1.070000   2.471400   4.280590   4.942800   4.280590
                   11         12
    11  H    0.000000
    12  H    2.471400   0.000000
 Stoichiometry    C6H6
 Framework group  D6H[3C2'(HC.CH)]
 Deg. of freedom     2
 Full point group                 D6H     NOp  24
 Largest Abelian subgroup         D2H     NOp   8
 Largest concise Abelian subgroup D2      NOp   4
                         Standard orientation:                         
 ---------------------------------------------------------------------
 Center     Atomic      Atomic             Coordinates (Angstroms)
 Number     Number       Type             X           Y           Z
 ---------------------------------------------------------------------
      1          6           0        0.000000    1.401400   -0.000000
      2          6           0        1.213648    0.700700   -0.000000
      3          6           0        1.213648   -0.700700   -0.000000
      4          6           0       -0.000000   -1.401400    0.000000
      5          6           0       -1.213648   -0.700700    0.000000
      6          6           0       -1.213648    0.700700    0.000000
      7          1           0        0.000000    2.471400   -0.000000
      8          1           0        2.140295    1.235700   -0.000000
      9          1           0        2.140295   -1.235700   -0.000000
     10          1           0       -0.000000   -2.471400    0.000000
     11          1           0       -2.140295   -1.235700    0.000000
     12          1           0       -2.140295    1.235700    0.000000
 ---------------------------------------------------------------------
 Rotational constants (GHZ):           5.6677156           5.6677156           2.8338578
 Standard basis: STO-3G (5D, 7F)
 There are     9 symmetry adapted cartesian basis functions of AG  symmetry.
 There are     6 symmetry adapted cartesian basis functions of B1G symmetry.
 There are     1 symmetry adapted cartesian basis functions of B2G symmetry.
 There are     2 symmetry adapted cartesian basis functions of B3G symmetry.
 There are     1 symmetry adapted cartesian basis functions of AU  symmetry.
 There are     2 symmetry adapted cartesian basis functions of B1U symmetry.
 There are     9 symmetry adapted cartesian basis functions of B2U symmetry.
 There are     6 symmetry adapted cartesian basis functions of B3U symmetry.
 There are     9 symmetry adapted basis functions of AG  symmetry.
 There are     6 symmetry adapted basis functions of B1G symmetry.
 There are     1 symmetry adapted basis functions of B2G symmetry.
 There are     2 symmetry adapted basis functions of B3G symmetry.
 There are     1 symmetry adapted basis functions of AU  symmetry.
 There are     2 symmetry adapted basis functions of B1U symmetry.
 There are     9 symmetry adapted basis functions of B2U symmetry.
 There are     6 symmetry adapted basis functions of B3U symmetry.
    36 basis functions,   108 primitive gaussians,    36 cartesian basis functions
    21 alpha electrons       21 beta electrons
       nuclear repulsion energy       203.0814687196 Hartrees.
 NAtoms=   12 NActive=   12 NUniq=    2 SFac= 4.00D+00 NAtFMM=   60 NAOKFM=F Big=F
 Integral buffers will be    131072 words long.
 Raffenetti 1 integral format.
 Two-electron integral symmetry is turned on.
 One-electron integrals computed using PRISM.
 NBasis=    36 RedAO= T EigKep=  1.74D-01  NBF=     9     6     1     2     1     2     9     6
 NBsUse=    36 1.00D-06 EigRej= -1.00D+00 NBFU=     9     6     1     2     1     2     9     6
 ExpMin= 1.69D-01 ExpMax= 7.16D+01 ExpMxC= 7.16D+01 IAcc=3 IRadAn=         5 AccDes= 0.00D+00
 Harris functional with IExCor=  205 and IRadAn=       5 diagonalized for initial guess.
 HarFok:  IExCor=  205 AccDes= 0.00D+00 IRadAn=         5 IDoV= 1 UseB2=F ITyADJ=14
 ICtDFT=  3500011 ScaDFX=  1.000000  1.000000  1.000000  1.000000
 FoFCou: FMM=F IPFlag=           0 FMFlag=      100000 FMFlg1=           0
         NFxFlg=           0 DoJE=T BraDBF=F KetDBF=T FulRan=T
         wScrn=  0.000000 ICntrl=       500 IOpCl=  0 I1Cent=   200000004 NGrid=           0
         NMat0=    1 NMatS0=      1 NMatT0=    0 NMatD0=    1 NMtDS0=    0 NMtDT0=    0
 Petite list used in FoFCou.
 Initial guess orbital symmetries:
       Occupied  (B1U) (E2G) (E2G) (E1U) (E1U) (A1G) (A1G) (E1U)
                 (E1U) (E2G) (E2G) (A1G) (B2U) (B1U) (E1U) (E1U)
                 (A2U) (E2G) (E2G) (E1G) (E1G)
       Virtual   (E2U) (E2U) (B2G) (A1G) (E1U) (E1U) (E2G) (E2G)
                 (B1U) (E1U) (E1U) (E2G) (E2G) (A2G) (B1U)
 The electronic state of the initial guess is 1-A1G.
 Keep R1 ints in memory in symmetry-blocked form, NReq=1048721.
 Requested convergence on RMS density matrix=1.00D-08 within 128 cycles.
 Requested convergence on MAX density matrix=1.00D-06.
 Requested convergence on             energy=1.00D-06.
 No special actions if energy rises.
 SCF Done:  E(RHF) =  -227.888954561     A.U. after    7 cycles
            NFock=  7  Conv=0.38D-08     -V/T= 2.0085
 Range of M.O.s used for correlation:     1    36
 NBasis=    36 NAE=    21 NBE=    21 NFC=     0 NFV=     0
 NROrb=     36 NOA=    21 NOB=    21 NVA=    15 NVB=    15
          Differentiating once with respect to electric field.
                with respect to dipole field.
          Electric field/nuclear overlap derivatives assumed to be zero.
 Keep R1 ints in memory in symmetry-blocked form, NReq=1049429.
          There are     3 degrees of freedom in the 1st order CPHF.  IDoFFX=0 NUNeed=     3.
      3 vectors produced by pass  0 Test12= 1.05D-14 3.33D-08 XBig12= 1.64D+01 2.49D+00.
 AX will form     3 AO Fock derivatives at one time.
      3 vectors produced by pass  1 Test12= 1.05D-14 3.33D-08 XBig12= 1.21D+00 4.11D-01.
      3 vectors produced by pass  2 Test12= 1.05D-14 3.33D-08 XBig12= 1.29D-02 4.13D-02.
      3 vectors produced by pass  3 Test12= 1.05D-14 3.33D-08 XBig12= 1.45D-04 5.07D-03.
      3 vectors produced by pass  4 Test12= 1.05D-14 3.33D-08 XBig12= 3.44D-07 2.03D-04.
      3 vectors produced by pass  5 Test12= 1.05D-14 3.33D-08 XBig12= 8.95D-10 1.04D-05.
      2 vectors produced by pass  6 Test12= 1.05D-14 3.33D-08 XBig12= 5.68D-12 9.86D-07.
      2 vectors produced by pass  7 Test12= 1.05D-14 3.33D-08 XBig12= 1.25D-14 4.67D-08.
 InvSVY:  IOpt=1 It=  1 EMax= 2.74D-16
 Solved reduced A of dimension    22 with     3 vectors.
 End of Minotr F.D. properties file   721 does not exist.
 End of Minotr F.D. properties file   722 does not exist.
 End of Minotr F.D. properties file   788 does not exist.
 Symmetrizing basis deriv contribution to polar:
 IMax=3 JMax=2 DiffMx= 0.00D+00
 G2DrvN: will do    13 centers at a time, making    1 passes.
 PxScal for G2LodP:  IOpCl= 0 ISclPx=1 IMOff=     1 NMtTot=     4 NTT=     666 ScalPx= 1.66D+00
 Calling FoFCou, ICntrl=  3107 FMM=F I1Cent=   0 AccDes= 0.00D+00.
 End of G2Drv F.D. properties file   721 does not exist.
 End of G2Drv F.D. properties file   722 does not exist.
 End of G2Drv F.D. properties file   788 does not exist.
          IDoAtm=111111111111
          Differentiating once with respect to electric field.
                with respect to dipole field.
          Differentiating once with respect to nuclear coordinates.
 Keep R1 ints in memory in symmetry-blocked form, NReq=1049708.
          There are     9 degrees of freedom in the 1st order CPHF.  IDoFFX=4 NUNeed=     9.
 Will reuse    3 saved solutions.
      6 vectors produced by pass  0 Test12= 3.50D-15 1.11D-08 XBig12= 4.96D-02 1.54D-01.
 AX will form     6 AO Fock derivatives at one time.
      6 vectors produced by pass  1 Test12= 3.50D-15 1.11D-08 XBig12= 3.03D-03 3.73D-02.
      6 vectors produced by pass  2 Test12= 3.50D-15 1.11D-08 XBig12= 3.46D-04 9.25D-03.
      6 vectors produced by pass  3 Test12= 3.50D-15 1.11D-08 XBig12= 3.43D-06 6.79D-04.
      6 vectors produced by pass  4 Test12= 3.50D-15 1.11D-08 XBig12= 4.07D-08 6.53D-05.
      6 vectors produced by pass  5 Test12= 3.50D-15 1.11D-08 XBig12= 1.16D-09 1.19D-05.
      6 vectors produced by pass  6 Test12= 3.50D-15 1.11D-08 XBig12= 1.09D-11 8.26D-07.
      2 vectors produced by pass  7 Test12= 3.50D-15 1.11D-08 XBig12= 1.96D-13 1.57D-07.
 InvSVY:  IOpt=1 It=  1 EMax= 2.22D-16
 Solved reduced A of dimension    44 with     6 vectors.
 Isotropic polarizability for W=    0.000000       32.32 Bohr**3.
 End of Minotr F.D. properties file   721 does not exist.
 End of Minotr F.D. properties file   722 does not exist.
 End of Minotr F.D. properties file   788 does not exist.

 **********************************************************************

            Population analysis using the SCF density.

 **********************************************************************

 Orbital symmetries:
       Occupied  (E1U) (E1U) (A1G) (E2G) (E2G) (B1U) (A1G) (E1U)
                 (E1U) (E2G) (E2G) (A1G) (B1U) (B2U) (E1U) (E1U)
                 (A2U) (E2G) (E2G) (E1G) (E1G)
       Virtual   (E2U) (E2U) (B2G) (A1G) (E1U) (E1U) (B1U) (E2G)
                 (E2G) (E2G) (E2G) (E1U) (E1U) (A2G) (B1U)
 The electronic state is 1-A1G.
 Alpha  occ. eigenvalues --  -11.02891 -11.02891 -11.02888 -11.02859 -11.02859
 Alpha  occ. eigenvalues --  -11.02846  -1.08613  -0.95419  -0.95419  -0.76929
 Alpha  occ. eigenvalues --   -0.76929  -0.66430  -0.60254  -0.55080  -0.53631
 Alpha  occ. eigenvalues --   -0.53631  -0.45267  -0.43529  -0.43529  -0.27811
 Alpha  occ. eigenvalues --   -0.27811
 Alpha virt. eigenvalues --    0.26629   0.26629   0.49828   0.59502   0.66085
 Alpha virt. eigenvalues --    0.66085   0.72874   0.73483   0.73483   0.89180
 Alpha virt. eigenvalues --    0.89180   0.89249   0.89249   1.07495   1.14667
          Condensed to atoms (all electrons):
               1          2          3          4          5          6
     1  C    4.774557   0.505642  -0.029476  -0.010954  -0.029476   0.505642
     2  C    0.505642   4.774557   0.505642  -0.029476  -0.010954  -0.029476
     3  C   -0.029476   0.505642   4.774557   0.505642  -0.029476  -0.010954
     4  C   -0.010954  -0.029476   0.505642   4.774557   0.505642  -0.029476
     5  C   -0.029476  -0.010954  -0.029476   0.505642   4.774557   0.505642
     6  C    0.505642  -0.029476  -0.010954  -0.029476   0.505642   4.774557
     7  H    0.396884  -0.025680   0.001364   0.000029   0.001364  -0.025680
     8  H   -0.025680   0.396884  -0.025680   0.001364   0.000029   0.001364
     9  H    0.001364  -0.025680   0.396884  -0.025680   0.001364   0.000029
    10  H    0.000029   0.001364  -0.025680   0.396884  -0.025680   0.001364
    11  H    0.001364   0.000029   0.001364  -0.025680   0.396884  -0.025680
    12  H   -0.025680   0.001364   0.000029   0.001364  -0.025680   0.396884
               7          8          9         10         11         12
     1  C    0.396884  -0.025680   0.001364   0.000029   0.001364  -0.025680
     2  C   -0.025680   0.396884  -0.025680   0.001364   0.000029   0.001364
     3  C    0.001364  -0.025680   0.396884  -0.025680   0.001364   0.000029
     4  C    0.000029   0.001364  -0.025680   0.396884  -0.025680   0.001364
     5  C    0.001364   0.000029   0.001364  -0.025680   0.396884  -0.025680
     6  C   -0.025680   0.001364   0.000029   0.001364  -0.025680   0.396884
     7  H    0.594652  -0.003543  -0.000032   0.000002  -0.000032  -0.003543
     8  H   -0.003543   0.594652  -0.003543  -0.000032   0.000002  -0.000032
     9  H   -0.000032  -0.003543   0.594652  -0.003543  -0.000032   0.000002
    10  H    0.000002  -0.000032  -0.003543   0.594652  -0.003543  -0.000032
    11  H   -0.000032   0.000002  -0.000032  -0.003543   0.594652  -0.003543
    12  H   -0.003543  -0.000032   0.000002  -0.000032  -0.003543   0.594652
 Mulliken charges:
               1
     1  C   -0.064216
     2  C   -0.064216
     3  C   -0.064216
     4  C   -0.064216
     5  C   -0.064216
     6  C   -0.064216
     7  H    0.064216
     8  H    0.064216
     9  H    0.064216
    10  H    0.064216
    11  H    0.064216
    12  H    0.064216
 Sum of Mulliken charges =  -0.00000
 Mulliken charges with hydrogens summed into heavy atoms:
               1
     1  C    0.000000
     2  C   -0.000000
     3  C   -0.000000
     4  C   -0.000000
     5  C   -0.000000
     6  C   -0.000000
 APT charges:
               1
     1  C   -0.059907
     2  C   -0.059907
     3  C   -0.059907
     4  C   -0.059907
     5  C   -0.059907
     6  C   -0.059907
     7  H    0.059907
     8  H    0.059907
     9  H    0.059907
    10  H    0.059907
    11  H    0.059907
    12  H    0.059907
 Sum of APT charges =   0.00000
 APT charges with hydrogens summed into heavy atoms:
               1
     1  C    0.000000
     2  C    0.000000
     3  C    0.000000
     4  C    0.000000
     5  C    0.000000
     6  C    0.000000
 Electronic spatial extent (au):  <R**2>=            455.8505
 Charge=              0.0000 electrons
 Dipole moment (field-independent basis, Debye):
    X=              0.0000    Y=             -0.0000    Z=             -0.0000  Tot=              0.0000
 Quadrupole moment (field-independent basis, Debye-Ang):
   XX=            -31.2119   YY=            -31.2119   ZZ=            -35.0959
   XY=              0.0000   XZ=             -0.0000   YZ=             -0.0000
 Traceless Quadrupole moment (field-independent basis, Debye-Ang):
   XX=              1.2947   YY=              1.2947   ZZ=             -2.5893
   XY=              0.0000   XZ=             -0.0000   YZ=             -0.0000
 Octapole moment (field-independent basis, Debye-Ang**2):
  XXX=              0.0000  YYY=              0.0000  ZZZ=             -0.0000  XYY=             -0.0000
  XXY=             -0.0000  XXZ=             -0.0000  XZZ=              0.0000  YZZ=              0.0000
  YYZ=              0.0000  XYZ=             -0.0000
 Hexadecapole moment (field-independent basis, Debye-Ang**3):
 XXXX=           -261.9627 YYYY=           -261.9627 ZZZZ=            -28.5056 XXXY=              0.0000
 XXXZ=              0.0000 YYYX=              0.0000 YYYZ=              0.0000 ZZZX=              0.0000
 ZZZY=              0.0000 XXYY=            -87.3209 XXZZ=            -53.8784 YYZZ=            -53.8784
 XXYZ=              0.0000 YYXZ=              0.0000 ZZXY=              0.0000
 N-N= 2.030814687196D+02 E-N=-9.369657335969D+02  KE= 2.259751624477D+02
 Symmetry AG   KE= 7.239415190192D+01
 Symmetry B1G  KE= 3.659905373672D+01
 Symmetry B2G  KE= 2.646326470629D+00
 Symmetry B3G  KE= 2.646326470629D+00
 Symmetry AU   KE= 1.462447184226D-16
 Symmetry B1U  KE= 2.172672058792D+00
 Symmetry B2U  KE= 7.031870812849D+01
 Symmetry B3U  KE= 3.919792368054D+01
  Exact polarizability:  45.527  -0.000  45.527  -0.000  -0.000   5.912
 Approx polarizability:  46.317  -0.000  46.317  -0.000  -0.000   4.947
 Calling FoFJK, ICntrl=    100127 FMM=F ISym2X=1 I1Cent= 0 IOpClX= 0 NMat=1 NMatS=1 NMatT=0.
 Full mass-weighted force constant matrix:
 Low frequencies ---   -0.0008   -0.0007   -0.0006   66.3697   66.3697   73.4171
 Low frequencies ---  487.5462  487.5462  690.7651
 Diagonal vibrational polarizability:
        0.1629712       0.1629712       1.3707656
 Diagonal vibrational hyperpolarizability:
       -0.0000000       0.0000000      -0.0000000
 Harmonic frequencies (cm**-1), IR intensities (KM/Mole), Raman scattering
 activities (A**4/AMU), depolarization ratios for plane and unpolarized
 incident light, reduced masses (AMU), force constants (mDyne/A),
 and normal coordinates:
                      1                      2                      3
                     E2U                    E2U                    E2G
 Frequencies --    487.5462               487.5462               690.7651
 Red. masses --      2.6694                 2.6694                 5.8976
 Frc consts  --      0.3739                 0.3739                 1.6580
 IR Inten    --      0.0000                 0.0000                 0.0000
 Raman Activ --      0.0000                 0.0000                 2.0831
 Depolar (P) --      0.0000                 0.0000                 0.7500
 Depolar (U) --      0.0000                 0.0000                 0.8571
  Atom  AN      X      Y      Z        X      Y      Z        X      Y      Z
     1   6    -0.00   0.00  -0.02     0.00   0.00   0.22    -0.14  -0.12   0.00
     2   6    -0.00  -0.00  -0.18    -0.00   0.00  -0.13    -0.14  -0.21   0.00
     3   6     0.00  -0.00   0.20    -0.00  -0.00  -0.09     0.29  -0.20   0.00
     4   6     0.00  -0.00  -0.02     0.00  -0.00   0.22     0.14   0.12   0.00
     5   6     0.00   0.00  -0.18     0.00  -0.00  -0.13     0.14   0.21   0.00
     6   6    -0.00   0.00   0.20     0.00  -0.00  -0.09    -0.29   0.20  -0.00
     7   1     0.00   0.00  -0.05     0.00   0.00   0.53     0.22  -0.12  -0.00
     8   1    -0.00  -0.00  -0.43    -0.00   0.00  -0.31    -0.29   0.05  -0.00
     9   1    -0.00  -0.00   0.48     0.00   0.00  -0.22     0.33  -0.14  -0.00
    10   1     0.00  -0.00  -0.05    -0.00  -0.00   0.53    -0.22   0.12  -0.00
    11   1     0.00  -0.00  -0.43     0.00  -0.00  -0.31     0.29  -0.05  -0.00
    12   1    -0.00  -0.00   0.48     0.00  -0.00  -0.22    -0.33   0.14  -0.00
                      4                      5                      6
                     E2G                    A2U                    B2G
 Frequencies --    690.7651               700.7501               845.8670
 Red. masses --      5.8976                 1.0848                 3.1311
 Frc consts  --      1.6580                 0.3139                 1.3199
 IR Inten    --      0.0000                25.0125                 0.0000
 Raman Activ --      2.0831                 0.0000                 0.0000
 Depolar (P) --      0.7500                 0.0000                 0.0000
 Depolar (U) --      0.8571                 0.0000                 0.0000
  Atom  AN      X      Y      Z        X      Y      Z        X      Y      Z
     1   6    -0.05   0.33  -0.00    -0.00   0.00  -0.03     0.00   0.00   0.18
     2   6    -0.28  -0.05   0.00    -0.00  -0.00  -0.03     0.00   0.00  -0.18
     3   6    -0.13  -0.10  -0.00     0.00  -0.00  -0.03    -0.00  -0.00   0.18
     4   6     0.05  -0.33   0.00     0.00  -0.00  -0.03     0.00  -0.00  -0.18
     5   6     0.28   0.05   0.00     0.00   0.00  -0.03    -0.00   0.00   0.18
     6   6     0.13   0.10  -0.00    -0.00   0.00  -0.03     0.00  -0.00  -0.18
     7   1     0.08   0.34  -0.00     0.00  -0.00   0.41    -0.00   0.00   0.37
     8   1    -0.16  -0.27  -0.00    -0.00  -0.00   0.41     0.00  -0.00  -0.37
     9   1     0.07   0.23  -0.00     0.00  -0.00   0.41    -0.00   0.00   0.37
    10   1    -0.08  -0.34  -0.00    -0.00  -0.00   0.41     0.00  -0.00  -0.37
    11   1     0.16   0.27  -0.00     0.00   0.00   0.41    -0.00   0.00   0.37
    12   1    -0.07  -0.23  -0.00    -0.00   0.00   0.41     0.00  -0.00  -0.37
                      7                      8                      9
                     E1G                    E1G                    B2U
 Frequencies --    957.4837               957.4837              1035.5207
 Red. masses --      1.2438                 1.2438                 9.2168
 Frc consts  --      0.6718                 0.6718                 5.8230
 IR Inten    --      0.0000                 0.0000                 0.0000
 Raman Activ --      5.4411                 5.4411                 0.0000
 Depolar (P) --      0.7500                 0.7500                 0.0000
 Depolar (U) --      0.8571                 0.8571                 0.0000
  Atom  AN      X      Y      Z        X      Y      Z        X      Y      Z
     1   6    -0.00   0.00   0.03     0.00  -0.00  -0.08     0.35   0.00  -0.00
     2   6    -0.00  -0.00  -0.05     0.00   0.00  -0.07    -0.18   0.31   0.00
     3   6     0.00  -0.00  -0.08    -0.00   0.00   0.01    -0.18  -0.31  -0.00
     4   6     0.00  -0.00  -0.03    -0.00  -0.00   0.08     0.35  -0.00   0.00
     5   6    -0.00   0.00   0.05    -0.00  -0.00   0.07    -0.18   0.31   0.00
     6   6     0.00   0.00   0.08     0.00  -0.00  -0.01    -0.18  -0.31  -0.00
     7   1     0.00  -0.00  -0.20    -0.00  -0.00   0.53     0.21   0.00  -0.00
     8   1    -0.00   0.00   0.36    -0.00   0.00   0.44    -0.10   0.18   0.00
     9   1     0.00   0.00   0.56     0.00   0.00  -0.09    -0.10  -0.18  -0.00
    10   1    -0.00   0.00   0.20     0.00  -0.00  -0.53     0.21  -0.00   0.00
    11   1    -0.00  -0.00  -0.36    -0.00   0.00  -0.44    -0.10   0.18  -0.00
    12   1     0.00   0.00  -0.56     0.00   0.00   0.09    -0.10  -0.18   0.00
                     10                     11                     12
                     E2U                    E2U                    A1G
 Frequencies --   1124.5652              1124.5652              1132.2458
 Red. masses --      1.4266                 1.4266                 5.8884
 Frc consts  --      1.0630                 1.0630                 4.4476
 IR Inten    --      0.0000                 0.0000                 0.0000
 Raman Activ --      0.0000                 0.0000                37.1938
 Depolar (P) --      0.0000                 0.0000                 0.1025
 Depolar (U) --      0.0000                 0.0000                 0.1859
  Atom  AN      X      Y      Z        X      Y      Z        X      Y      Z
     1   6    -0.00   0.00   0.02     0.00  -0.00  -0.11     0.00   0.27  -0.00
     2   6     0.00   0.00   0.08    -0.00  -0.00   0.07     0.24   0.14   0.00
     3   6     0.00   0.00  -0.11    -0.00   0.00   0.04     0.24  -0.14   0.00
     4   6    -0.00  -0.00   0.02    -0.00   0.00  -0.11     0.00  -0.27  -0.00
     5   6    -0.00  -0.00   0.08     0.00   0.00   0.07    -0.24  -0.14  -0.00
     6   6    -0.00   0.00  -0.11     0.00  -0.00   0.04    -0.24   0.14   0.00
     7   1     0.00   0.00  -0.11    -0.00  -0.00   0.56     0.00   0.30   0.00
     8   1     0.00   0.00  -0.43    -0.00   0.00  -0.37     0.26   0.15  -0.00
     9   1     0.00  -0.00   0.54     0.00   0.00  -0.18     0.26  -0.15  -0.00
    10   1     0.00  -0.00  -0.11    -0.00   0.00   0.56     0.00  -0.30   0.00
    11   1    -0.00  -0.00  -0.43     0.00   0.00  -0.37    -0.26  -0.15   0.00
    12   1    -0.00   0.00   0.54     0.00  -0.00  -0.18    -0.26   0.15  -0.00
                     13                     14                     15
                     B2G                    B1U                    E1U
 Frequencies --   1146.2577              1154.6113              1182.4577
 Red. masses --      1.3224                 6.3942                 1.6109
 Frc consts  --      1.0237                 5.0223                 1.3271
 IR Inten    --      0.0000                 0.0000                 0.1946
 Raman Activ --      0.0000                 0.0000                 0.0000
 Depolar (P) --      0.0000                 0.0000                 0.0000
 Depolar (U) --      0.0000                 0.0000                 0.0000
  Atom  AN      X      Y      Z        X      Y      Z        X      Y      Z
     1   6     0.00  -0.00  -0.07     0.00   0.29   0.00     0.07   0.05  -0.00
     2   6    -0.00  -0.00   0.07    -0.25  -0.14   0.00    -0.02  -0.09  -0.00
     3   6    -0.00   0.00  -0.07     0.25  -0.14  -0.00    -0.09   0.06   0.00
     4   6     0.00   0.00   0.07     0.00   0.29   0.00     0.07   0.05  -0.00
     5   6     0.00   0.00  -0.07    -0.25  -0.14   0.00    -0.02  -0.09   0.00
     6   6     0.00  -0.00   0.07     0.25  -0.14  -0.00    -0.09   0.06   0.00
     7   1     0.00  -0.00   0.40     0.00   0.29  -0.00     0.50   0.05   0.00
     8   1    -0.00  -0.00  -0.40    -0.25  -0.15   0.00     0.16  -0.42   0.00
     9   1    -0.00   0.00   0.40     0.25  -0.15   0.00    -0.08   0.11  -0.00
    10   1     0.00   0.00  -0.40     0.00   0.29  -0.00     0.50   0.05   0.00
    11   1     0.00   0.00   0.40    -0.25  -0.15  -0.00     0.16  -0.42  -0.00
    12   1     0.00  -0.00  -0.40     0.25  -0.15   0.00    -0.08   0.11  -0.00
                     16                     17                     18
                     E1U                    B2U                    E2G
 Frequencies --   1182.4577              1314.9691              1325.2061
 Red. masses --      1.6109                 1.0341                 1.1316
 Frc consts  --      1.3271                 1.0535                 1.1709
 IR Inten    --      0.1946                 0.0000                 0.0000
 Raman Activ --      0.0000                 0.0000                12.1638
 Depolar (P) --      0.0000                 0.0000                 0.7500
 Depolar (U) --      0.0000                 0.0000                 0.8571
  Atom  AN      X      Y      Z        X      Y      Z        X      Y      Z
     1   6     0.03  -0.10   0.00    -0.02   0.00  -0.00     0.04   0.00   0.00
     2   6    -0.10  -0.01  -0.00     0.01  -0.02  -0.00    -0.03   0.05  -0.00
     3   6     0.05   0.06  -0.00     0.01   0.02   0.00    -0.01  -0.01   0.00
     4   6     0.03  -0.10   0.00    -0.02  -0.00  -0.00    -0.04  -0.00   0.00
     5   6    -0.10  -0.01  -0.00     0.01  -0.02   0.00     0.03  -0.05  -0.00
     6   6     0.05   0.06  -0.00     0.01   0.02   0.00     0.01   0.01  -0.00
     7   1     0.23  -0.11  -0.00     0.41   0.00   0.00     0.39   0.00  -0.00
     8   1    -0.25   0.22   0.00    -0.20   0.35  -0.00    -0.28   0.49   0.00
     9   1     0.28   0.47   0.00    -0.20  -0.35  -0.00    -0.09  -0.15   0.00
    10   1     0.23  -0.11  -0.00     0.41   0.00   0.00    -0.39  -0.00  -0.00
    11   1    -0.25   0.22   0.00    -0.20   0.35   0.00     0.28  -0.49   0.00
    12   1     0.28   0.47   0.00    -0.20  -0.35  -0.00     0.09   0.15  -0.00
                     19                     20                     21
                     E2G                    A2G                    E1U
 Frequencies --   1325.2061              1550.7230              1727.1194
 Red. masses --      1.1316                 1.2438                 2.1396
 Frc consts  --      1.1709                 1.7622                 3.7604
 IR Inten    --      0.0000                 0.0000                14.8890
 Raman Activ --     12.1638                 0.0000                 0.0000
 Depolar (P) --      0.7500                 0.0000                 0.0000
 Depolar (U) --      0.8571                 0.0000                 0.0000
  Atom  AN      X      Y      Z        X      Y      Z        X      Y      Z
     1   6     0.05  -0.00   0.00    -0.06  -0.00  -0.00     0.15   0.02  -0.00
     2   6     0.01  -0.01  -0.00    -0.03   0.05   0.00    -0.01  -0.13   0.00
     3   6     0.03   0.05  -0.00     0.03   0.05   0.00    -0.06   0.09  -0.00
     4   6    -0.05   0.00   0.00     0.06   0.00  -0.00     0.15   0.02  -0.00
     5   6    -0.01   0.01  -0.00     0.03  -0.05  -0.00    -0.01  -0.13   0.00
     6   6    -0.03  -0.05   0.00    -0.03  -0.05   0.00    -0.06   0.09  -0.00
     7   1     0.43  -0.00  -0.00     0.40  -0.00  -0.00    -0.52   0.03  -0.00
     8   1     0.06  -0.10   0.00     0.20  -0.35   0.00    -0.26   0.26  -0.00
     9   1     0.27   0.47  -0.00    -0.20  -0.35  -0.00    -0.19  -0.08   0.00
    10   1    -0.43   0.00  -0.00    -0.40   0.00   0.00    -0.52   0.03  -0.00
    11   1    -0.06   0.10   0.00    -0.20   0.35   0.00    -0.26   0.26  -0.00
    12   1    -0.27  -0.47   0.00     0.20   0.35  -0.00    -0.19  -0.08   0.00
                     22                     23                     24
                     E1U                    E2G                    E2G
 Frequencies --   1727.1194              1869.1107              1869.1107
 Red. masses --      2.1396                 5.4676                 5.4676
 Frc consts  --      3.7604                11.2543                11.2543
 IR Inten    --     14.8890                 0.0000                 0.0000
 Raman Activ --      0.0000                21.6944                21.6944
 Depolar (P) --      0.0000                 0.7500                 0.7500
 Depolar (U) --      0.0000                 0.8571                 0.8571
  Atom  AN      X      Y      Z        X      Y      Z        X      Y      Z
     1   6    -0.03   0.10  -0.00     0.33   0.00  -0.00     0.00  -0.15   0.00
     2   6     0.12  -0.07   0.00    -0.20   0.08  -0.00    -0.08   0.29  -0.00
     3   6    -0.10  -0.11   0.00     0.20   0.08  -0.00    -0.08  -0.29   0.00
     4   6    -0.03   0.10  -0.00    -0.33  -0.00   0.00    -0.00   0.15  -0.00
     5   6     0.12  -0.07  -0.00     0.20  -0.08  -0.00     0.08  -0.29   0.00
     6   6    -0.10  -0.11   0.00    -0.20  -0.08   0.00     0.08   0.29  -0.00
     7   1     0.11   0.12  -0.00    -0.40   0.00  -0.00    -0.00  -0.19   0.00
     8   1    -0.13   0.39   0.00    -0.04  -0.26   0.00     0.26  -0.26   0.00
     9   1     0.22   0.46  -0.00     0.04  -0.26   0.00     0.26   0.26  -0.00
    10   1     0.11   0.12   0.00     0.40  -0.00   0.00     0.00   0.19  -0.00
    11   1    -0.13   0.39   0.00     0.04   0.26   0.00    -0.26   0.26   0.00
    12   1     0.22   0.46  -0.00    -0.04   0.26  -0.00    -0.26  -0.26  -0.00
                     25                     26                     27
                     B1U                    E2G                    E2G
 Frequencies --   3822.3408              3840.8763              3840.8763
 Red. masses --      1.0879                 1.0929                 1.0929
 Frc consts  --      9.3650                 9.4992                 9.4992
 IR Inten    --      0.0000                 0.0000                 0.0000
 Raman Activ --      0.0000                73.6801                73.6801
 Depolar (P) --      0.0000                 0.7500                 0.7500
 Depolar (U) --      0.0000                 0.8571                 0.8571
  Atom  AN      X      Y      Z        X      Y      Z        X      Y      Z
     1   6    -0.00  -0.03   0.00     0.00  -0.05   0.00     0.00   0.01  -0.00
     2   6     0.03   0.02  -0.00     0.01   0.01   0.00    -0.04  -0.02   0.00
     3   6    -0.03   0.02  -0.00     0.03  -0.02   0.00     0.03  -0.02   0.00
     4   6     0.00  -0.03   0.00    -0.00   0.05  -0.00    -0.00  -0.01  -0.00
     5   6     0.03   0.02  -0.00    -0.01  -0.01   0.00     0.04   0.02  -0.00
     6   6    -0.03   0.02   0.00    -0.03   0.02   0.00    -0.03   0.02  -0.00
     7   1     0.00   0.41  -0.00    -0.00   0.55  -0.00    -0.00  -0.16  -0.00
     8   1    -0.35  -0.20   0.00    -0.12  -0.07  -0.00     0.48   0.28   0.00
     9   1     0.35  -0.20   0.00    -0.36   0.21  -0.00    -0.35   0.20  -0.00
    10   1    -0.00   0.41  -0.00     0.00  -0.55   0.00     0.00   0.16  -0.00
    11   1    -0.35  -0.20   0.00     0.12   0.07   0.00    -0.48  -0.28   0.00
    12   1     0.35  -0.20  -0.00     0.36  -0.21   0.00     0.35  -0.20   0.00
                     28                     29                     30
                     E1U                    E1U                    A1G
 Frequencies --   3853.8061              3853.8061              3864.3978
 Red. masses --      1.0998                 1.0998                 1.1041
 Frc consts  --      9.6237                 9.6237                 9.7142
 IR Inten    --     13.7423                13.7423                 0.0000
 Raman Activ --      0.0000                 0.0000               185.3673
 Depolar (P) --      0.0000                 0.0000                 0.1170
 Depolar (U) --      0.0000                 0.0000                 0.2094
  Atom  AN      X      Y      Z        X      Y      Z        X      Y      Z
     1   6    -0.00  -0.05   0.00     0.00  -0.02   0.00    -0.00  -0.04   0.00
     2   6    -0.01  -0.00  -0.00    -0.04  -0.03  -0.00    -0.03  -0.02   0.00
     3   6     0.03  -0.02   0.00    -0.03   0.02  -0.00    -0.03   0.02  -0.00
     4   6    -0.00  -0.05   0.00     0.00  -0.02   0.00    -0.00   0.04  -0.00
     5   6    -0.01  -0.00   0.00    -0.04  -0.03   0.00     0.03   0.02  -0.00
     6   6     0.03  -0.02  -0.00    -0.03   0.02  -0.00     0.03  -0.02  -0.00
     7   1     0.00   0.55   0.00    -0.00   0.16   0.00     0.00   0.41  -0.00
     8   1     0.12   0.06   0.00     0.48   0.28   0.00     0.35   0.20   0.00
     9   1    -0.36   0.21  -0.00     0.34  -0.20   0.00     0.35  -0.20   0.00
    10   1     0.00   0.55  -0.00    -0.00   0.16  -0.00     0.00  -0.41   0.00
    11   1     0.12   0.06   0.00     0.48   0.28  -0.00    -0.35  -0.20   0.00
    12   1    -0.36   0.21   0.00     0.34  -0.20  -0.00    -0.35   0.20  -0.00

 -------------------
 - Thermochemistry -
 -------------------
 Temperature   298.150 Kelvin.  Pressure   1.00000 Atm.
 Atom     1 has atomic number  6 and mass  12.00000
 Atom     2 has atomic number  6 and mass  12.00000
 Atom     3 has atomic number  6 and mass  12.00000
 Atom     4 has atomic number  6 and mass  12.00000
 Atom     5 has atomic number  6 and mass  12.00000
 Atom     6 has atomic number  6 and mass  12.00000
 Atom     7 has atomic number  1 and mass   1.00783
 Atom     8 has atomic number  1 and mass   1.00783
 Atom     9 has atomic number  1 and mass   1.00783
 Atom    10 has atomic number  1 and mass   1.00783
 Atom    11 has atomic number  1 and mass   1.00783
 Atom    12 has atomic number  1 and mass   1.00783
 Molecular mass:    78.04695 amu.
 Principal axes and moments of inertia in atomic units:
                           1         2         3
     Eigenvalues --   318.42480 318.42480 636.84960
           X            0.97263   0.23235   0.00000
           Y           -0.23235   0.97263   0.00000
           Z            0.00000  -0.00000   1.00000
 This molecule is an oblate symmetric top.
 Rotational symmetry number 12.
 Rotational temperatures (Kelvin)      0.27201     0.27201     0.13600
 Rotational constants (GHZ):           5.66772     5.66772     2.83386
 Zero-point vibrational energy     303167.0 (Joules/Mol)
                                   72.45864 (Kcal/Mol)
 Warning -- explicit consideration of   2 degrees of freedom as
           vibrations may cause significant error
 Vibrational temperatures:    701.47   701.47   993.86   993.86  1008.22
          (Kelvin)           1217.01  1377.61  1377.61  1489.88  1618.00
                             1618.00  1629.05  1649.21  1661.23  1701.29
                             1701.29  1891.95  1906.68  1906.68  2231.14
                             2484.94  2484.94  2689.23  2689.23  5499.50
                             5526.16  5526.16  5544.77  5544.77  5560.01
 
 Zero-point correction=                           0.115470 (Hartree/Particle)
 Thermal correction to Energy=                    0.119485
 Thermal correction to Enthalpy=                  0.120429
 Thermal correction to Gibbs Free Energy=         0.090513
 Sum of electronic and zero-point Energies=           -227.773484
 Sum of electronic and thermal Energies=              -227.769470
 Sum of electronic and thermal Enthalpies=            -227.768526
 Sum of electronic and thermal Free Energies=         -227.798442
 
                     E (Thermal)             CV                S
                      KCal/Mol        Cal/Mol-Kelvin    Cal/Mol-Kelvin
 Total                   74.978             15.075             62.964
 Electronic               0.000              0.000              0.000
 Translational            0.889              2.981             38.979
 Rotational               0.889              2.981             20.733
 Vibrational             73.200              9.114              3.251
 Vibration     1          0.843              1.278              0.690
 Vibration     2          0.843              1.278              0.690
                       Q            Log10(Q)             Ln(Q)
 Total Bot       0.232888D-41        -41.632854        -95.863188
 Total V=0       0.301788D+12         11.479701         26.432989
 Vib (Bot)       0.113362D-52        -52.945531       -121.911591
 Vib (Bot)    1  0.340809D+00         -0.467488         -1.076432
 Vib (Bot)    2  0.340809D+00         -0.467488         -1.076432
 Vib (V=0)       0.146901D+01          0.167024          0.384587
 Vib (V=0)    1  0.110510D+01          0.043403          0.099940
 Vib (V=0)    2  0.110510D+01          0.043403          0.099940
 Electronic      0.100000D+01          0.000000          0.000000
 Translational   0.271012D+08          7.432988         17.115087
 Rotational      0.758036D+04          3.879690          8.933316
 ***** Axes restored to original set *****
 -------------------------------------------------------------------
 Center     Atomic                   Forces (Hartrees/Bohr)
 Number     Number              X              Y              Z
 -------------------------------------------------------------------
      1        6          -0.026513140    0.015307368    0.000000000
      2        6          -0.026513140   -0.015307368    0.000000000
      3        6           0.000000000   -0.030614737   -0.000000000
      4        6           0.026513140   -0.015307368   -0.000000000
      5        6           0.026513140    0.015307368   -0.000000000
      6        6          -0.000000000    0.030614737    0.000000000
      7        1           0.010569299   -0.006102188    0.000000000
      8        1           0.010569299    0.006102188    0.000000000
      9        1           0.000000000    0.012204375   -0.000000000
     10        1          -0.010569299    0.006102188   -0.000000000
     11        1          -0.010569299   -0.006102188   -0.000000000
     12        1          -0.000000000   -0.012204375    0.000000000
 -------------------------------------------------------------------
 Cartesian Forces:  Max     0.030614737 RMS     0.013454918

 GradGradGradGradGradGradGradGradGradGradGradGradGradGradGradGradGradGrad
 Berny optimization.
 Search for a local minimum.
 Step number   1 out of a maximum of    2
 All quantities printed in internal units (Hartrees-Bohrs-Radians)
 Second derivative matrix not updated -- analytic derivatives used.
 ITU=  0
     Eigenvalues ---    0.01900   0.01900   0.02937   0.04082   0.06077
     Eigenvalues ---    0.06077   0.06479   0.07760   0.07760   0.10132
     Eigenvalues ---    0.10132   0.13146   0.13146   0.22619   0.24838
     Eigenvalues ---    0.25398   0.27409   0.27409   0.39886   0.49568
     Eigenvalues ---    0.53295   0.53295   0.93282   0.93282   1.35821
     Eigenvalues ---    1.46595   1.55156   1.55156   1.73846   1.73846
 Angle between quadratic step and forces=  32.68 degrees.
 ClnCor:  largest displacement from symmetrization is 1.07D-13 for atom     8.
 Linear search not attempted -- first point.
 ClnCor:  largest displacement from symmetrization is 4.97D-16 for atom     5.
 B after Tr=     0.000000    0.000000   -0.000000
         Rot=    1.000000   -0.000000    0.000000    0.000000 Ang=   0.00 deg.
 Variable       Old X    -DE/DX   Delta X   Delta X   Delta X     New X
                                 (Linear)    (Quad)   (Total)
    X1        2.29346  -0.02651   0.00000  -0.02478  -0.02478   2.26869
    Y1       -1.32413   0.01531   0.00000   0.01430   0.01430  -1.30983
    Z1        0.00000   0.00000   0.00000  -0.00000  -0.00000  -0.00000
    X2        2.29346  -0.02651   0.00000  -0.02478  -0.02478   2.26869
    Y2        1.32413  -0.01531   0.00000  -0.01430  -0.01430   1.30983
    Z2       -0.00000   0.00000   0.00000   0.00000   0.00000   0.00000
    X3       -0.00000   0.00000   0.00000   0.00000   0.00000  -0.00000
    Y3        2.64826  -0.03061   0.00000  -0.02861  -0.02861   2.61965
    Z3       -0.00000  -0.00000   0.00000   0.00000   0.00000   0.00000
    X4       -2.29346   0.02651   0.00000   0.02478   0.02478  -2.26869
    Y4        1.32413  -0.01531   0.00000  -0.01430  -0.01430   1.30983
    Z4        0.00000  -0.00000   0.00000  -0.00000   0.00000   0.00000
    X5       -2.29346   0.02651   0.00000   0.02478   0.02478  -2.26869
    Y5       -1.32413   0.01531   0.00000   0.01430   0.01430  -1.30983
    Z5        0.00000  -0.00000   0.00000  -0.00000  -0.00000  -0.00000
    X6        0.00000  -0.00000   0.00000  -0.00000  -0.00000   0.00000
    Y6       -2.64826   0.03061   0.00000   0.02861   0.02861  -2.61965
    Z6        0.00000   0.00000   0.00000  -0.00000  -0.00000  -0.00000
    X7        4.04457   0.01057   0.00000  -0.00479  -0.00479   4.03978
    Y7       -2.33513  -0.00610   0.00000   0.00277   0.00277  -2.33237
    Z7        0.00000   0.00000   0.00000   0.00000  -0.00000  -0.00000
    X8        4.04457   0.01057   0.00000  -0.00479  -0.00479   4.03978
    Y8        2.33513   0.00610   0.00000  -0.00277  -0.00277   2.33237
    Z8       -0.00000   0.00000   0.00000   0.00000   0.00000   0.00000
    X9       -0.00000   0.00000   0.00000   0.00000   0.00000  -0.00000
    Y9        4.67027   0.01220   0.00000  -0.00553  -0.00553   4.66474
    Z9       -0.00000  -0.00000   0.00000   0.00000   0.00000   0.00000
   X10       -4.04457  -0.01057   0.00000   0.00479   0.00479  -4.03978
   Y10        2.33513   0.00610   0.00000  -0.00277  -0.00277   2.33237
   Z10        0.00000  -0.00000   0.00000   0.00000   0.00000   0.00000
   X11       -4.04457  -0.01057   0.00000   0.00479   0.00479  -4.03978
   Y11       -2.33513  -0.00610   0.00000   0.00277   0.00277  -2.33237
   Z11        0.00000  -0.00000   0.00000  -0.00000  -0.00000  -0.00000
   X12        0.00000  -0.00000   0.00000  -0.00000  -0.00000   0.00000
   Y12       -4.67027  -0.01220   0.00000   0.00553   0.00553  -4.66474
   Z12        0.00000   0.00000   0.00000  -0.00000  -0.00000  -0.00000
         Item               Value     Threshold  Converged?
 Maximum Force            0.030615     0.000450     NO 
 RMS     Force            0.013455     0.000300     NO 
 Maximum Displacement     0.028608     0.001800     NO 
 RMS     Displacement     0.011896     0.001200     NO 
 Predicted change in Energy=-2.424867D-03
 GradGradGradGradGradGradGradGradGradGradGradGradGradGradGradGradGradGrad

 Dipole is zero, so no output in dipole orientation.

 ----------------------------------------------------------------------

 Electric dipole moment (input orientation):
 (Debye = 10**-18 statcoulomb cm , SI units = C m)
                  (au)            (Debye)         (10**-30 SI)
   Tot        0.000000D+00      0.000000D+00      0.000000D+00
   x          0.000000D+00      0.000000D+00      0.000000D+00
   y          0.000000D+00      0.000000D+00      0.000000D+00
   z          0.000000D+00      0.000000D+00      0.000000D+00

 Dipole polarizability, Alpha (input orientation).
 (esu units = cm**3 , SI units = C**2 m**2 J**-1)
 Alpha(0;0):
               (au)            (10**-24 esu)      (10**-40 SI)
   iso        0.323217D+02      0.478958D+01      0.532912D+01
   aniso      0.396151D+02      0.587036D+01      0.653165D+01
   xx         0.455267D+02      0.674636D+01      0.750634D+01
   yx         0.000000D+00      0.000000D+00      0.000000D+00
   yy         0.455267D+02      0.674636D+01      0.750634D+01
   zx         0.000000D+00      0.000000D+00      0.000000D+00
   zy         0.000000D+00      0.000000D+00      0.000000D+00
   zz         0.591157D+01      0.876004D+00      0.974686D+00

 ----------------------------------------------------------------------
 1\1\GINC-BNODE0302\Freq\RHF\STO-3G\C6H6\JASM3285\09-Jan-2020\0\\# freq
  hf/sto-3g geom=connectivity\\Title Card Required\\0,1\C,1.2136480002,
 -0.7006999996,0.\C,1.2136480002,0.7006999996,0.\C,0.,1.4013999993,0.\C
 ,-1.2136480002,0.7006999996,0.\C,-1.2136480002,-0.7006999996,0.\C,0.,-
 1.4013999993,0.\H,2.1402951807,-1.2356999987,0.\H,2.1402951807,1.23569
 99987,0.\H,0.,2.4713999975,0.\H,-2.1402951807,1.2356999987,0.\H,-2.140
 2951807,-1.2356999987,0.\H,0.,-2.4713999975,0.\\Version=ES64L-G16RevA.
 03\State=1-A1G\HF=-227.8889546\RMSD=3.757e-09\RMSF=1.345e-02\ZeroPoint
 =0.1154702\Thermal=0.1194845\Dipole=0.,0.,0.\DipoleDeriv=-0.0065523,-0
 .0896892,0.,-0.0896892,-0.1101165,0.,0.,0.,-0.0630533,-0.0065523,0.089
 6892,0.,0.0896892,-0.1101165,0.,0.,0.,-0.0630533,-0.1618986,0.,0.,0.,0
 .0452298,0.,0.,0.,-0.0630533,-0.0065523,-0.0896892,0.,-0.0896892,-0.11
 01165,0.,0.,0.,-0.0630533,-0.0065523,0.0896892,0.,0.0896892,-0.1101165
 ,0.,0.,0.,-0.0630533,-0.1618986,0.,0.,0.,0.0452298,0.,0.,0.,-0.0630533
 ,0.0680452,-0.0168197,0.,-0.0168197,0.0486235,0.,0.,0.,0.0630533,0.068
 0452,0.0168197,0.,0.0168197,0.0486235,0.,0.,0.,0.0630533,0.0389127,0.,
 0.,0.,0.0777561,0.,0.,0.,0.0630533,0.0680452,-0.0168197,0.,-0.0168197,
 0.0486235,0.,0.,0.,0.0630533,0.0680452,0.0168197,0.,0.0168197,0.048623
 5,0.,0.,0.,0.0630533,0.0389127,0.,0.,0.,0.0777561,0.,0.,0.,0.0630533\P
 olar=45.5267124,0.,45.5267124,0.,0.,5.9115709\PolarDeriv=0.3924702,-1.
 6227993,2.2303423,0.,0.,0.2777105,-3.441036,-0.918936,1.9267545,0.,0.,
 -0.1603362,0.,0.,0.,1.9911532,-1.1495928,0.,0.3924702,1.6227993,2.2303
 423,0.,0.,0.2777105,3.441036,-0.918936,-1.9267545,0.,0.,0.1603362,0.,0
 .,0.,1.9911532,1.1495928,0.,0.,-3.2144432,0.,0.,0.,0.,0.4220301,0.,2.6
 065329,0.,0.,0.3206724,0.,0.,0.,0.,2.2991857,0.,-0.3924702,1.6227993,-
 2.2303423,0.,0.,-0.2777105,3.441036,0.918936,-1.9267545,0.,0.,0.160336
 2,0.,0.,0.,-1.9911532,1.1495928,0.,-0.3924702,-1.6227993,-2.2303423,0.
 ,0.,-0.2777105,-3.441036,0.918936,1.9267545,0.,0.,-0.1603362,0.,0.,0.,
 -1.9911532,-1.1495928,0.,0.,3.2144432,0.,0.,0.,0.,-0.4220301,0.,-2.606
 5329,0.,0.,-0.3206724,0.,0.,0.,0.,-2.2991857,0.,6.2727582,-2.6367027,0
 .9351404,0.,0.,0.117373,-1.6357688,2.6688089,-2.5257134,0.,0.,-0.06776
 53,0.,0.,0.,1.3195838,-0.7618621,0.,6.2727582,2.6367027,0.9351404,0.,0
 .,0.117373,1.6357688,2.6688089,2.5257134,0.,0.,0.0677653,0.,0.,0.,1.31
 95838,0.7618621,0.,0.,1.9858098,0.,0.,0.,0.,-0.016058,0.,8.3390225,0.,
 0.,0.1355307,0.,0.,0.,0.,1.5237241,0.,-6.2727582,2.6367027,-0.9351404,
 0.,0.,-0.117373,1.6357688,-2.6688089,2.5257134,0.,0.,0.0677653,0.,0.,0
 .,-1.3195838,0.7618621,0.,-6.2727582,-2.6367027,-0.9351404,0.,0.,-0.11
 7373,-1.6357688,-2.6688089,-2.5257134,0.,0.,-0.0677653,0.,0.,0.,-1.319
 5838,-0.7618621,0.,0.,-1.9858098,0.,0.,0.,0.,0.016058,0.,-8.3390225,0.
 ,0.,-0.1355307,0.,0.,0.,0.,-1.5237241,0.\HyperPolar=0.,0.,0.,0.,0.,0.,
 0.,0.,0.,0.\Quadrupole=0.9625497,0.9625497,-1.9250995,0.,0.,0.\PG=D06H
  [3C2'(H1C1.C1H1)]\NImag=0\\0.97290326,-0.11739279,0.83734975,0.,0.,0.
 18872749,-0.20227126,-0.09113816,0.,0.97290326,0.09113816,-0.37565758,
 0.,0.11739279,0.83734975,0.,0.,-0.08887021,0.,0.,0.18872749,0.09150478
 ,0.17856947,0.,-0.33231100,-0.01605968,0.,0.76957299,0.03413005,-0.031
 29735,0.,0.16621664,-0.24561784,0.,0.,1.04068002,0.,0.,0.00882908,0.,0
 .,-0.08887021,0.,0.,0.18872749,-0.04358078,-0.07763956,0.,-0.09269841,
 0.07221971,0.,-0.33231100,-0.16621664,0.,0.97290326,-0.07763956,-0.133
 23122,0.,-0.07221971,0.15290584,0.,0.01605968,-0.24561784,0.,-0.117392
 79,0.83734975,0.,0.,-0.01136776,0.,0.,0.00882908,0.,0.,-0.08887021,0.,
 0.,0.18872749,-0.09269841,-0.07221971,0.,-0.04358078,0.07763956,0.,0.0
 9150478,-0.03413005,0.,-0.20227126,-0.09113816,0.,0.97290326,0.0722197
 1,0.15290584,0.,0.07763956,-0.13323122,0.,-0.17856947,-0.03129735,0.,0
 .09113816,-0.37565758,0.,0.11739279,0.83734975,0.,0.,0.00882908,0.,0.,
 -0.01136776,0.,0.,0.00882908,0.,0.,-0.08887021,0.,0.,0.18872749,-0.332
 31100,0.01605968,0.,0.09150478,-0.17856947,0.,-0.17805644,0.,0.,0.0915
 0478,0.17856947,0.,-0.33231100,-0.01605968,0.,0.76957299,-0.16621664,-
 0.24561784,0.,-0.03413005,-0.03129735,0.,0.,0.00124444,0.,0.03413005,-
 0.03129735,0.,0.16621664,-0.24561784,0.,0.,1.04068002,0.,0.,-0.0888702
 1,0.,0.,0.00882908,0.,0.,-0.01136776,0.,0.,0.00882908,0.,0.,-0.0888702
 1,0.,0.,0.18872749,-0.39952557,0.18646505,0.,0.00819907,-0.01021137,0.
 ,0.00039791,-0.00051793,0.,0.00149438,-0.00134993,0.,-0.00377458,-0.00
 496893,0.,-0.01664876,0.02259558,0.,0.40689445,0.18646505,-0.18421428,
 0.,0.03694149,-0.00949874,0.,-0.00255994,-0.00694242,0.,-0.00134993,-0
 .00006439,0.,-0.00292692,-0.00276993,0.,-0.02455727,0.01534910,0.,-0.1
 9347037,0.18349410,0.,0.,-0.04682745,0.,0.,0.00480262,0.,0.,0.01046149
 ,0.,0.,-0.00097821,0.,0.,0.01046149,0.,0.,0.00480262,0.,0.,0.03100218,
 0.00819907,0.01021137,0.,-0.39952557,-0.18646505,0.,-0.01664876,-0.022
 59558,0.,-0.00377458,0.00496893,0.,0.00149438,0.00134993,0.,0.00039791
 ,0.00051793,0.,0.00137440,-0.00024034,0.,0.40689445,-0.03694149,-0.009
 49874,0.,-0.18646505,-0.18421428,0.,0.02455727,0.01534910,0.,0.0029269
 2,-0.00276993,0.,0.00134993,-0.00006439,0.,0.00255994,-0.00694242,0.,0
 .00024034,0.00246395,0.,0.19347037,0.18349410,0.,0.,0.00480262,0.,0.,-
 0.04682745,0.,0.,0.00480262,0.,0.,0.01046149,0.,0.,-0.00097821,0.,0.,0
 .01046149,0.,0.,-0.00599902,0.,0.,0.03100218,-0.00644009,0.00138799,0.
 ,0.00650019,0.03792233,0.,-0.07655863,0.,0.,0.00650019,-0.03792233,0.,
 -0.00644009,-0.00138799,0.,-0.00084378,0.,0.,0.00042419,0.00170100,0.,
 0.00219156,-0.00071213,0.,0.07179393,0.00342999,-0.00010441,0.,-0.0092
 3053,-0.00779986,0.,0.,-0.50718121,0.,0.00923053,-0.00779986,0.,-0.003
 42999,-0.00010441,0.,0.,0.00227376,0.,-0.00038194,-0.00033737,0.,-0.00
 023145,0.00164678,0.,0.,0.51859462,0.,0.,0.01046149,0.,0.,0.00480262,0
 .,0.,-0.04682745,0.,0.,0.00480262,0.,0.,0.01046149,0.,0.,-0.00097821,0
 .,0.,-0.00013553,0.,0.,-0.00599902,0.,0.,0.03100218,0.00149438,-0.0013
 4993,0.,-0.00377458,-0.00496893,0.,-0.01664876,0.02259558,0.,-0.399525
 57,0.18646505,0.,0.00819907,-0.01021137,0.,0.00039791,-0.00051793,0.,-
 0.00030888,0.00032660,0.,-0.00071815,0.00104147,0.,0.00219156,0.000231
 45,0.,0.40689445,-0.00134993,-0.00006439,0.,-0.00292692,-0.00276993,0.
 ,-0.02455727,0.01534910,0.,0.18646505,-0.18421428,0.,0.03694149,-0.009
 49874,0.,-0.00255994,-0.00694242,0.,0.00032660,0.00006824,0.,-0.001041
 47,0.00080497,0.,0.00071213,0.00164678,0.,-0.19347037,0.18349410,0.,0.
 ,-0.00097821,0.,0.,0.01046149,0.,0.,0.00480262,0.,0.,-0.04682745,0.,0.
 ,0.00480262,0.,0.,0.01046149,0.,0.,-0.00145563,0.,0.,-0.00013553,0.,0.
 ,-0.00599902,0.,0.,0.03100218,-0.00377458,0.00496893,0.,0.00149438,0.0
 0134993,0.,0.00039791,0.00051793,0.,0.00819907,0.01021137,0.,-0.399525
 57,-0.18646505,0.,-0.01664876,-0.02259558,0.,-0.00071815,-0.00104147,0
 .,-0.00030888,-0.00032660,0.,0.00042419,0.00038194,0.,0.00137440,-0.00
 024034,0.,0.40689445,0.00292692,-0.00276993,0.,0.00134993,-0.00006439,
 0.,0.00255994,-0.00694242,0.,-0.03694149,-0.00949874,0.,-0.18646505,-0
 .18421428,0.,0.02455727,0.01534910,0.,0.00104147,0.00080497,0.,-0.0003
 2660,0.00006824,0.,-0.00170100,-0.00033737,0.,0.00024034,0.00246395,0.
 ,0.19347037,0.18349410,0.,0.,0.01046149,0.,0.,-0.00097821,0.,0.,0.0104
 6149,0.,0.,0.00480262,0.,0.,-0.04682745,0.,0.,0.00480262,0.,0.,-0.0001
 3553,0.,0.,-0.00145563,0.,0.,-0.00013553,0.,0.,-0.00599902,0.,0.,0.031
 00218,0.00650019,-0.03792233,0.,-0.00644009,-0.00138799,0.,-0.00084378
 ,0.,0.,-0.00644009,0.00138799,0.,0.00650019,0.03792233,0.,-0.07655863,
 0.,0.,0.00219156,0.00071213,0.,0.00042419,-0.00170100,0.,0.00025680,0.
 ,0.,0.00042419,0.00170100,0.,0.00219156,-0.00071213,0.,0.07179393,0.00
 923053,-0.00779986,0.,-0.00342999,-0.00010441,0.,0.,0.00227376,0.,0.00
 342999,-0.00010441,0.,-0.00923053,-0.00779986,0.,0.,-0.50718121,0.,0.0
 0023145,0.00164678,0.,0.00038194,-0.00033737,0.,0.,-0.00049744,0.,-0.0
 0038194,-0.00033737,0.,-0.00023145,0.00164678,0.,0.,0.51859462,0.,0.,0
 .00480262,0.,0.,0.01046149,0.,0.,-0.00097821,0.,0.,0.01046149,0.,0.,0.
 00480262,0.,0.,-0.04682745,0.,0.,-0.00599902,0.,0.,-0.00013553,0.,0.,-
 0.00145563,0.,0.,-0.00013553,0.,0.,-0.00599902,0.,0.,0.03100218\\0.026
 51314,-0.01530737,0.,0.02651314,0.01530737,0.,0.,0.03061474,0.,-0.0265
 1314,0.01530737,0.,-0.02651314,-0.01530737,0.,0.,-0.03061474,0.,-0.010
 56930,0.00610219,0.,-0.01056930,-0.00610219,0.,0.,-0.01220438,0.,0.010
 56930,-0.00610219,0.,0.01056930,0.00610219,0.,0.,0.01220438,0.\\\@


 WE'RE IN THE POSITION OF A VISITOR FROM ANOTHER
 DIMENSION WHO COMES TO EARTH AND SEES A CHESS MATCH.
 ASSUMING HE KNOWS IT'S A GAME, HE'S GOT TWO PROBLEMS:
 FIRST, FIGURE OUT THE RULES, AND SECOND, FIGURE OUT HOW TO WIN.
 NINETY PERCENT OF SCIENCE (INCLUDING VIRTUALLY ALL OF CHEMISRY)
 IS IN THAT SECOND CATEGORY.  THEY'RE TRYING TO APPLY
 THE LAWS THAT ARE ALREADY KNOWN.

                     -- SHELDON GLASHOW, 1979
 Job cpu time:       0 days  0 hours  0 minutes  1.9 seconds.
 Elapsed time:       0 days  0 hours  0 minutes  2.0 seconds.
 File lengths (MBytes):  RWF=     17 Int=      0 D2E=      0 Chk=      2 Scr=      2
 Normal termination of Gaussian 16 at Thu Jan  9 12:28:34 2020.
