 Entering Gaussian System, Link 0=g16
 Input=ch4_ccsd_freq_opt.com
 Output=ch4_ccsd_freq_opt.log
 Initial command:
 /curc/sw/gaussian/16/g16/l1.exe "/rc_scratch/jasm3285/Gau-187015.inp" -scrdir="/rc_scratch/jasm3285/"
 Entering Link 1 = /curc/sw/gaussian/16/g16/l1.exe PID=    187016.
  
 Copyright (c) 1988,1990,1992,1993,1995,1998,2003,2009,2016,
            Gaussian, Inc.  All Rights Reserved.
  
 This is part of the Gaussian(R) 16 program.  It is based on
 the Gaussian(R) 09 system (copyright 2009, Gaussian, Inc.),
 the Gaussian(R) 03 system (copyright 2003, Gaussian, Inc.),
 the Gaussian(R) 98 system (copyright 1998, Gaussian, Inc.),
 the Gaussian(R) 94 system (copyright 1995, Gaussian, Inc.),
 the Gaussian 92(TM) system (copyright 1992, Gaussian, Inc.),
 the Gaussian 90(TM) system (copyright 1990, Gaussian, Inc.),
 the Gaussian 88(TM) system (copyright 1988, Gaussian, Inc.),
 the Gaussian 86(TM) system (copyright 1986, Carnegie Mellon
 University), and the Gaussian 82(TM) system (copyright 1983,
 Carnegie Mellon University). Gaussian is a federally registered
 trademark of Gaussian, Inc.
  
 This software contains proprietary and confidential information,
 including trade secrets, belonging to Gaussian, Inc.
  
 This software is provided under written license and may be
 used, copied, transmitted, or stored only in accord with that
 written license.
  
 The following legend is applicable only to US Government
 contracts under FAR:
  
                    RESTRICTED RIGHTS LEGEND
  
 Use, reproduction and disclosure by the US Government is
 subject to restrictions as set forth in subparagraphs (a)
 and (c) of the Commercial Computer Software - Restricted
 Rights clause in FAR 52.227-19.
  
 Gaussian, Inc.
 340 Quinnipiac St., Bldg. 40, Wallingford CT 06492
  
  
 ---------------------------------------------------------------
 Warning -- This program may not be used in any manner that
 competes with the business of Gaussian, Inc. or will provide
 assistance to any competitor of Gaussian, Inc.  The licensee
 of this program is prohibited from giving any competitor of
 Gaussian, Inc. access to this program.  By using this program,
 the user acknowledges that Gaussian, Inc. is engaged in the
 business of creating and licensing software in the field of
 computational chemistry and represents and warrants to the
 licensee that it is not a competitor of Gaussian, Inc. and that
 it will not use this program in any manner prohibited above.
 ---------------------------------------------------------------
  

 Cite this work as:
 Gaussian 16, Revision A.03,
 M. J. Frisch, G. W. Trucks, H. B. Schlegel, G. E. Scuseria, 
 M. A. Robb, J. R. Cheeseman, G. Scalmani, V. Barone, 
 G. A. Petersson, H. Nakatsuji, X. Li, M. Caricato, A. V. Marenich, 
 J. Bloino, B. G. Janesko, R. Gomperts, B. Mennucci, H. P. Hratchian, 
 J. V. Ortiz, A. F. Izmaylov, J. L. Sonnenberg, D. Williams-Young, 
 F. Ding, F. Lipparini, F. Egidi, J. Goings, B. Peng, A. Petrone, 
 T. Henderson, D. Ranasinghe, V. G. Zakrzewski, J. Gao, N. Rega, 
 G. Zheng, W. Liang, M. Hada, M. Ehara, K. Toyota, R. Fukuda, 
 J. Hasegawa, M. Ishida, T. Nakajima, Y. Honda, O. Kitao, H. Nakai, 
 T. Vreven, K. Throssell, J. A. Montgomery, Jr., J. E. Peralta, 
 F. Ogliaro, M. J. Bearpark, J. J. Heyd, E. N. Brothers, K. N. Kudin, 
 V. N. Staroverov, T. A. Keith, R. Kobayashi, J. Normand, 
 K. Raghavachari, A. P. Rendell, J. C. Burant, S. S. Iyengar, 
 J. Tomasi, M. Cossi, J. M. Millam, M. Klene, C. Adamo, R. Cammi, 
 J. W. Ochterski, R. L. Martin, K. Morokuma, O. Farkas, 
 J. B. Foresman, and D. J. Fox, Gaussian, Inc., Wallingford CT, 2016.
 
 ******************************************
 Gaussian 16:  ES64L-G16RevA.03 25-Dec-2016
                 9-Jan-2020 
 ******************************************
 -----------------------------------------
 #p freq opt ccsd/sto-3g geom=connectivity
 -----------------------------------------
 1/18=20,19=15,38=1,57=2/1,3;
 2/9=110,12=2,17=6,18=5,40=1/2;
 3/6=3,11=9,25=1,30=1,71=1/1,2,3;
 4//1;
 5/5=2,38=5/2;
 8/6=4,9=120000,10=1/1,4;
 9/5=7,15=1/13;
 11/28=-8,29=200,42=3/11;
 10/5=6/2;
 6/7=2,8=2,9=2,10=2/1;
 7/12=7/1,2,3,16;
 1/18=20,19=15/3(2);
 2/9=110/2;
 99//99;
 2/9=110/2;
 3/6=3,11=9,25=1,30=1,71=1/1,2,3;
 4/5=5,16=3,69=1/1;
 5/5=2,38=5/2;
 8/6=4,9=120000,10=1/1,4;
 9/5=7,15=1/13;
 11/28=-8,29=200,42=3/11;
 10/5=6/2;
 7/12=7/1,2,3,16;
 1/18=20,19=15/3(-9);
 2/9=110/2;
 6/7=2,8=2,9=2,10=2/1;
 99//99;
 Leave Link    1 at Thu Jan  9 20:09:34 2020, MaxMem=           0 cpu:               0.0 elap:               0.0
 (Enter /curc/sw/gaussian/16/g16/l101.exe)
 -------------------
 Title Card Required
 -------------------
 Symbolic Z-matrix:
 Charge =  0 Multiplicity = 1
 C                     0.        0.        0. 
 H                     0.        0.        1.07 
 H                     0.       -1.00881  -0.35667 
 H                    -0.87365   0.5044   -0.35667 
 H                     0.87365   0.5044   -0.35667 
 
 ITRead=  0  0  0  0  0
 MicOpt= -1 -1 -1 -1 -1
 NAtoms=      5 NQM=        5 NQMF=       0 NMMI=      0 NMMIF=      0
                NMic=       0 NMicF=      0.
                    Isotopes and Nuclear Properties:
 (Nuclear quadrupole moments (NQMom) in fm**2, nuclear magnetic moments (NMagM)
  in nuclear magnetons)

  Atom         1           2           3           4           5
 IAtWgt=          12           1           1           1           1
 AtmWgt=  12.0000000   1.0078250   1.0078250   1.0078250   1.0078250
 NucSpn=           0           1           1           1           1
 AtZEff=  -0.0000000  -0.0000000  -0.0000000  -0.0000000  -0.0000000
 NQMom=    0.0000000   0.0000000   0.0000000   0.0000000   0.0000000
 NMagM=    0.0000000   2.7928460   2.7928460   2.7928460   2.7928460
 AtZNuc=   6.0000000   1.0000000   1.0000000   1.0000000   1.0000000
 Leave Link  101 at Thu Jan  9 20:09:34 2020, MaxMem=   104857600 cpu:               0.2 elap:               0.2
 (Enter /curc/sw/gaussian/16/g16/l103.exe)

 GradGradGradGradGradGradGradGradGradGradGradGradGradGradGradGradGradGrad
 Berny optimization.
 Initialization pass.
                           ----------------------------
                           !    Initial Parameters    !
                           ! (Angstroms and Degrees)  !
 --------------------------                            --------------------------
 ! Name  Definition              Value          Derivative Info.                !
 --------------------------------------------------------------------------------
 ! R1    R(1,2)                  1.07           estimate D2E/DX2                !
 ! R2    R(1,3)                  1.07           estimate D2E/DX2                !
 ! R3    R(1,4)                  1.07           estimate D2E/DX2                !
 ! R4    R(1,5)                  1.07           estimate D2E/DX2                !
 ! A1    A(2,1,3)              109.4712         estimate D2E/DX2                !
 ! A2    A(2,1,4)              109.4712         estimate D2E/DX2                !
 ! A3    A(2,1,5)              109.4712         estimate D2E/DX2                !
 ! A4    A(3,1,4)              109.4712         estimate D2E/DX2                !
 ! A5    A(3,1,5)              109.4712         estimate D2E/DX2                !
 ! A6    A(4,1,5)              109.4712         estimate D2E/DX2                !
 ! D1    D(2,1,4,3)           -120.0            estimate D2E/DX2                !
 ! D2    D(2,1,5,3)            120.0            estimate D2E/DX2                !
 ! D3    D(2,1,5,4)           -120.0            estimate D2E/DX2                !
 ! D4    D(3,1,5,4)            120.0            estimate D2E/DX2                !
 --------------------------------------------------------------------------------
 Trust Radius=3.00D-01 FncErr=1.00D-07 GrdErr=1.00D-07 EigMax=2.50D+02 EigMin=1.00D-04
 Number of steps in this run=     24 maximum allowed number of steps=    100.
 GradGradGradGradGradGradGradGradGradGradGradGradGradGradGradGradGradGrad

 Leave Link  103 at Thu Jan  9 20:09:34 2020, MaxMem=   104857600 cpu:               0.0 elap:               0.0
 (Enter /curc/sw/gaussian/16/g16/l202.exe)
                          Input orientation:                          
 ---------------------------------------------------------------------
 Center     Atomic      Atomic             Coordinates (Angstroms)
 Number     Number       Type             X           Y           Z
 ---------------------------------------------------------------------
      1          6           0        0.000000    0.000000    0.000000
      2          1           0        0.000000    0.000000    1.070000
      3          1           0        0.000000   -1.008806   -0.356667
      4          1           0       -0.873651    0.504403   -0.356667
      5          1           0        0.873651    0.504403   -0.356667
 ---------------------------------------------------------------------
                    Distance matrix (angstroms):
                    1          2          3          4          5
     1  C    0.000000
     2  H    1.070000   0.000000
     3  H    1.070000   1.747303   0.000000
     4  H    1.070000   1.747303   1.747303   0.000000
     5  H    1.070000   1.747303   1.747303   1.747303   0.000000
 Stoichiometry    CH4
 Framework group  TD[O(C),4C3(H)]
 Deg. of freedom     1
 Full point group                 TD      NOp  24
 Largest Abelian subgroup         D2      NOp   4
 Largest concise Abelian subgroup D2      NOp   4
                         Standard orientation:                         
 ---------------------------------------------------------------------
 Center     Atomic      Atomic             Coordinates (Angstroms)
 Number     Number       Type             X           Y           Z
 ---------------------------------------------------------------------
      1          6           0        0.000000    0.000000    0.000000
      2          1           0        0.617765    0.617765    0.617765
      3          1           0       -0.617765   -0.617765    0.617765
      4          1           0       -0.617765    0.617765   -0.617765
      5          1           0        0.617765   -0.617765   -0.617765
 ---------------------------------------------------------------------
 Rotational constants (GHZ):         164.2463655         164.2463655         164.2463655
 Leave Link  202 at Thu Jan  9 20:09:34 2020, MaxMem=   104857600 cpu:               0.0 elap:               0.0
 (Enter /curc/sw/gaussian/16/g16/l301.exe)
 Standard basis: STO-3G (5D, 7F)
 Ernie: Thresh=  0.10000D-02 Tol=  0.10000D-05 Strict=F.
 There are     3 symmetry adapted cartesian basis functions of A   symmetry.
 There are     2 symmetry adapted cartesian basis functions of B1  symmetry.
 There are     2 symmetry adapted cartesian basis functions of B2  symmetry.
 There are     2 symmetry adapted cartesian basis functions of B3  symmetry.
 There are     3 symmetry adapted basis functions of A   symmetry.
 There are     2 symmetry adapted basis functions of B1  symmetry.
 There are     2 symmetry adapted basis functions of B2  symmetry.
 There are     2 symmetry adapted basis functions of B3  symmetry.
     9 basis functions,    27 primitive gaussians,     9 cartesian basis functions
     5 alpha electrons        5 beta electrons
       nuclear repulsion energy        13.6865180129 Hartrees.
 IExCor=    0 DFT=F Ex=HF Corr=None ExCW=0 ScaHFX=  1.000000
 ScaDFX=  1.000000  1.000000  1.000000  1.000000 ScalE2=  1.000000  1.000000
 IRadAn=      5 IRanWt=     -1 IRanGd=            0 ICorTp=0 IEmpDi=  4
 NAtoms=    5 NActive=    5 NUniq=    2 SFac= 4.00D+00 NAtFMM=   60 NAOKFM=F Big=F
 Integral buffers will be    131072 words long.
 Raffenetti 1 integral format.
 Two-electron integral symmetry is turned on.
 Leave Link  301 at Thu Jan  9 20:09:34 2020, MaxMem=   104857600 cpu:               0.1 elap:               0.0
 (Enter /curc/sw/gaussian/16/g16/l302.exe)
 NPDir=0 NMtPBC=     1 NCelOv=     1 NCel=       1 NClECP=     1 NCelD=      1
         NCelK=      1 NCelE2=     1 NClLst=     1 CellRange=     0.0.
 One-electron integrals computed using PRISM.
 One-electron integral symmetry used in STVInt
 NBasis=     9 RedAO= T EigKep=  2.09D-01  NBF=     3     2     2     2
 NBsUse=     9 1.00D-06 EigRej= -1.00D+00 NBFU=     3     2     2     2
 Leave Link  302 at Thu Jan  9 20:09:34 2020, MaxMem=   104857600 cpu:               0.1 elap:               0.1
 (Enter /curc/sw/gaussian/16/g16/l303.exe)
 DipDrv:  MaxL=1.
 Leave Link  303 at Thu Jan  9 20:09:34 2020, MaxMem=   104857600 cpu:               0.0 elap:               0.0
 (Enter /curc/sw/gaussian/16/g16/l401.exe)
 ExpMin= 1.69D-01 ExpMax= 7.16D+01 ExpMxC= 7.16D+01 IAcc=3 IRadAn=         5 AccDes= 0.00D+00
 Harris functional with IExCor=  205 and IRadAn=       5 diagonalized for initial guess.
 HarFok:  IExCor=  205 AccDes= 0.00D+00 IRadAn=         5 IDoV= 1 UseB2=F ITyADJ=14
 ICtDFT=  3500011 ScaDFX=  1.000000  1.000000  1.000000  1.000000
 FoFCou: FMM=F IPFlag=           0 FMFlag=      100000 FMFlg1=           0
         NFxFlg=           0 DoJE=T BraDBF=F KetDBF=T FulRan=T
         wScrn=  0.000000 ICntrl=       500 IOpCl=  0 I1Cent=   200000004 NGrid=           0
         NMat0=    1 NMatS0=      1 NMatT0=    0 NMatD0=    1 NMtDS0=    0 NMtDT0=    0
 Petite list used in FoFCou.
 Harris En= -39.8837924805735    
 JPrj=0 DoOrth=F DoCkMO=F.
 Initial guess orbital symmetries:
       Occupied  (A1) (A1) (T2) (T2) (T2)
       Virtual   (T2) (T2) (T2) (A1)
 The electronic state of the initial guess is 1-A1.
 Leave Link  401 at Thu Jan  9 20:09:34 2020, MaxMem=   104857600 cpu:               0.1 elap:               0.1
 (Enter /curc/sw/gaussian/16/g16/l502.exe)
 Keep R1 ints in memory in symmetry-blocked form, NReq=805617.
 FoFCou: FMM=F IPFlag=           0 FMFlag=           0 FMFlg1=           0
         NFxFlg=           0 DoJE=F BraDBF=F KetDBF=F FulRan=T
         wScrn=  0.000000 ICntrl=       600 IOpCl=  0 I1Cent=           0 NGrid=           0
         NMat0=    1 NMatS0=     45 NMatT0=    0 NMatD0=    1 NMtDS0=    0 NMtDT0=    0
 Petite list used in FoFCou.
 Closed shell SCF:
 Using DIIS extrapolation, IDIIS=  1040.
 NGot=   104857600 LenX=   104855350 LenY=   104854468
 Requested convergence on RMS density matrix=1.00D-08 within 128 cycles.
 Requested convergence on MAX density matrix=1.00D-06.
 Requested convergence on             energy=1.00D-06.
 No special actions if energy rises.

 Cycle   1  Pass 1  IDiag  1:
 E= -39.6637599734319    
 DIIS: error= 5.96D-02 at cycle   1 NSaved=   1.
 NSaved= 1 IEnMin= 1 EnMin= -39.6637599734319     IErMin= 1 ErrMin= 5.96D-02
 ErrMax= 5.96D-02  0.00D+00 EMaxC= 1.00D-01 BMatC= 5.37D-02 BMatP= 5.37D-02
 IDIUse=3 WtCom= 4.04D-01 WtEn= 5.96D-01
 Coeff-Com:  0.100D+01
 Coeff-En:   0.100D+01
 Coeff:      0.100D+01
 Gap=     1.239 Goal=   None    Shift=    0.000
 GapD=    1.239 DampG=2.000 DampE=0.500 DampFc=1.0000 IDamp=-1.
 RMSDP=3.70D-02 MaxDP=1.29D-01              OVMax= 0.00D+00

 Cycle   2  Pass 1  IDiag  1:
 E= -39.7246004481088     Delta-E=       -0.060840474677 Rises=F Damp=F
 DIIS: error= 1.21D-02 at cycle   2 NSaved=   2.
 NSaved= 2 IEnMin= 2 EnMin= -39.7246004481088     IErMin= 2 ErrMin= 1.21D-02
 ErrMax= 1.21D-02  0.00D+00 EMaxC= 1.00D-01 BMatC= 1.65D-03 BMatP= 5.37D-02
 IDIUse=3 WtCom= 8.79D-01 WtEn= 1.21D-01
 Coeff-Com:  0.115D+00 0.885D+00
 Coeff-En:   0.000D+00 0.100D+01
 Coeff:      0.101D+00 0.899D+00
 Gap=     1.255 Goal=   None    Shift=    0.000
 RMSDP=5.60D-03 MaxDP=2.55D-02 DE=-6.08D-02 OVMax= 0.00D+00

 Cycle   3  Pass 1  IDiag  1:
 E= -39.7262701640897     Delta-E=       -0.001669715981 Rises=F Damp=F
 DIIS: error= 6.22D-04 at cycle   3 NSaved=   3.
 NSaved= 3 IEnMin= 3 EnMin= -39.7262701640897     IErMin= 3 ErrMin= 6.22D-04
 ErrMax= 6.22D-04  0.00D+00 EMaxC= 1.00D-01 BMatC= 5.41D-06 BMatP= 1.65D-03
 IDIUse=3 WtCom= 9.94D-01 WtEn= 6.22D-03
 Coeff-Com: -0.939D-02-0.124D-01 0.102D+01
 Coeff-En:   0.000D+00 0.000D+00 0.100D+01
 Coeff:     -0.933D-02-0.123D-01 0.102D+01
 Gap=     1.257 Goal=   None    Shift=    0.000
 RMSDP=3.69D-04 MaxDP=1.18D-03 DE=-1.67D-03 OVMax= 0.00D+00

 Cycle   4  Pass 1  IDiag  1:
 E= -39.7262782195912     Delta-E=       -0.000008055502 Rises=F Damp=F
 DIIS: error= 1.53D-04 at cycle   4 NSaved=   4.
 NSaved= 4 IEnMin= 4 EnMin= -39.7262782195912     IErMin= 4 ErrMin= 1.53D-04
 ErrMax= 1.53D-04  0.00D+00 EMaxC= 1.00D-01 BMatC= 1.23D-07 BMatP= 5.41D-06
 IDIUse=3 WtCom= 9.98D-01 WtEn= 1.53D-03
 Coeff-Com:  0.251D-02-0.694D-03-0.309D+00 0.131D+01
 Coeff-En:   0.000D+00 0.000D+00 0.000D+00 0.100D+01
 Coeff:      0.251D-02-0.693D-03-0.308D+00 0.131D+01
 Gap=     1.257 Goal=   None    Shift=    0.000
 RMSDP=7.53D-05 MaxDP=5.21D-04 DE=-8.06D-06 OVMax= 0.00D+00

 Cycle   5  Pass 1  IDiag  1:
 E= -39.7262784183066     Delta-E=       -0.000000198715 Rises=F Damp=F
 DIIS: error= 4.64D-07 at cycle   5 NSaved=   5.
 NSaved= 5 IEnMin= 5 EnMin= -39.7262784183066     IErMin= 5 ErrMin= 4.64D-07
 ErrMax= 4.64D-07  0.00D+00 EMaxC= 1.00D-01 BMatC= 2.00D-12 BMatP= 1.23D-07
 IDIUse=1 WtCom= 1.00D+00 WtEn= 0.00D+00
 Coeff-Com: -0.296D-05-0.435D-04 0.819D-04 0.182D-02 0.998D+00
 Coeff:     -0.296D-05-0.435D-04 0.819D-04 0.182D-02 0.998D+00
 Gap=     1.257 Goal=   None    Shift=    0.000
 RMSDP=1.74D-07 MaxDP=5.82D-07 DE=-1.99D-07 OVMax= 0.00D+00

 Cycle   6  Pass 1  IDiag  1:
 E= -39.7262784183083     Delta-E=       -0.000000000002 Rises=F Damp=F
 DIIS: error= 5.82D-10 at cycle   6 NSaved=   6.
 NSaved= 6 IEnMin= 6 EnMin= -39.7262784183083     IErMin= 6 ErrMin= 5.82D-10
 ErrMax= 5.82D-10  0.00D+00 EMaxC= 1.00D-01 BMatC= 4.38D-18 BMatP= 2.00D-12
 IDIUse=1 WtCom= 1.00D+00 WtEn= 0.00D+00
 Large coefficients: NSaved=  6 BigCof=    0.00 CofMax=   10.00 Det=-5.02D-28
 Inversion failed.  Reducing to  5 matrices.
 Coeff-Com: -0.192D-09 0.113D-06-0.209D-05 0.141D-02 0.999D+00
 Coeff:     -0.192D-09 0.113D-06-0.209D-05 0.141D-02 0.999D+00
 Gap=     1.257 Goal=   None    Shift=    0.000
 RMSDP=3.01D-10 MaxDP=1.16D-09 DE=-1.73D-12 OVMax= 0.00D+00

 SCF Done:  E(RHF) =  -39.7262784183     A.U. after    6 cycles
            NFock=  6  Conv=0.30D-09     -V/T= 2.0055
 KE= 3.950712905580D+01 PE=-1.192834580226D+02 EE= 2.636353253558D+01
 Leave Link  502 at Thu Jan  9 20:09:35 2020, MaxMem=   104857600 cpu:               0.1 elap:               0.1
 (Enter /curc/sw/gaussian/16/g16/l801.exe)
 Windowed orbitals will be sorted by symmetry type.
 ExpMin= 1.69D-01 ExpMax= 7.16D+01 ExpMxC= 7.16D+01 IAcc=3 IRadAn=         5 AccDes= 0.00D+00
 HarFok:  IExCor=  205 AccDes= 0.00D+00 IRadAn=         5 IDoV=-2 UseB2=F ITyADJ=14
 ICtDFT= 12500011 ScaDFX=  1.000000  1.000000  1.000000  1.000000
 Largest valence mixing into a core orbital is  1.71D-04
 Largest core mixing into a valence orbital is  1.11D-04
 Range of M.O.s used for correlation:     2     9
 NBasis=     9 NAE=     5 NBE=     5 NFC=     1 NFV=     0
 NROrb=      8 NOA=     4 NOB=     4 NVA=     4 NVB=     4
 Leave Link  801 at Thu Jan  9 20:09:35 2020, MaxMem=   104857600 cpu:               0.2 elap:               0.2
 (Enter /curc/sw/gaussian/16/g16/l804.exe)
 Closed-shell transformation, MDV=   104857600 ITran=4 ISComp=2.
 Unit  1 TFree=        240396 TCopy=        206388.
 Semi-Direct transformation.
 ModeAB=           4 MOrb=             4 LenV=     104735940
 LASXX=          133 LTotXX=         133 LenRXX=         333
 LTotAB=         200 MaxLAS=         960 LenRXY=           0
 NonZer=         466 LenScr=      655360 LnRSAI=         960
 LnScr1=      655360 LExtra=           0 Total=      1312013
 MaxDsk=          -1 SrtSym=           T ITran=            4
 DoSDTr:  NPSUse=  1
 JobTyp=0 Pass  1:  I=   1 to   4.
 (rs|ai) integrals will be sorted in core.
 Complete sort for first half transformation.
 First half transformation complete.
 Complete sort for second half transformation.
 Second half transformation complete.
 Spin components of T(2) and E(2):
     alpha-alpha T2 =       0.4804259001D-03 E2=     -0.1342315734D-02
     alpha-beta  T2 =       0.1919230922D-01 E2=     -0.5136713750D-01
     beta-beta   T2 =       0.4804259001D-03 E2=     -0.1342315734D-02
 ANorm=    0.1010026317D+01
 E2 =    -0.5405176897D-01 EUMP2 =    -0.39780330187275D+02
 Leave Link  804 at Thu Jan  9 20:09:35 2020, MaxMem=   104857600 cpu:               0.1 elap:               0.1
 (Enter /curc/sw/gaussian/16/g16/l913.exe)
 CIDS:  MDV=   104857600.
 Frozen-core window:  NFC=   1 NFV=   0.
 IFCWin=0 IBDFC=1 NFBD=     0     0 NFCmp=     0     0 NFFFC=     0     0
 Using DD3R+UMP44R for 1st iteration.
 Using DD4RQ for 2nd and later iterations.
 Keep R2 and R3 ints in memory in symmetry-blocked form, NReq=808157.
 FoFCou: FMM=F IPFlag=           0 FMFlag=           0 FMFlg1=           0
         NFxFlg=           0 DoJE=F BraDBF=F KetDBF=F FulRan=T
         wScrn=  0.000000 ICntrl=       600 IOpCl=  0 I1Cent=           0 NGrid=           0
         NMat0=    1 NMatS0=     45 NMatT0=    0 NMatD0=    1 NMtDS0=    0 NMtDT0=    0
 Petite list used in FoFCou.
 CIDS: In Core Option IDoMem=           1.
 Coupled Cluster theory with single and double substitutions
 ===========================================================
 Iterations=  50 Convergence= 0.100D-07
 Produce multiple copies of IABC intergrals
 Iteration Nr.   1
 **********************
 DD1Dir will call FoFMem   1 times, MxPair=        20
 NAB=    10 NAA=     0 NBB=     0.
 MP4(R+Q)=  0.19797864D-03
 Maximum subspace dimension=  5
 A-vector RMS=  3.8684941D-03 Max=  8.6266405D-03 conv= 1.00D-06.
 RLE energy=       -0.0735345616
 E3=       -0.14518886D-01        EUMP3=      -0.39794849073D+02
 E4(DQ)=   -0.46137552D-02        UMP4(DQ)=   -0.39799462828D+02
 E4(SDQ)=  -0.46139895D-02        UMP4(SDQ)=  -0.39799463063D+02
 VARIATIONAL ENERGIES WITH THE FIRST-ORDER WAVEFUNCTION:
 DE(Corr)= -0.68372646E-01 E(Corr)=     -39.794651064    
 NORM(A)=   0.10188360D+01
 Iteration Nr.   2
 **********************
 DD1Dir will call FoFMem   1 times, MxPair=        20
 NAB=    10 NAA=     0 NBB=     0.
 A-vector RMS=  1.5502922D-03 Max=  1.7766362D-03 conv= 1.00D-06.
 RLE energy=       -0.0755485979
 DE(Corr)= -0.74587393E-01 E(CORR)=     -39.800865811     Delta=-6.21D-03
 NORM(A)=   0.10201750D+01
 Iteration Nr.   3
 **********************
 DD1Dir will call FoFMem   1 times, MxPair=        20
 NAB=    10 NAA=     0 NBB=     0.
 A-vector RMS=  2.4060507D-04 Max=  4.5094904D-04 conv= 1.00D-06.
 RLE energy=       -0.0756715075
 DE(Corr)= -0.75583776E-01 E(CORR)=     -39.801862194     Delta=-9.96D-04
 NORM(A)=   0.10202761D+01
 Iteration Nr.   4
 **********************
 DD1Dir will call FoFMem   1 times, MxPair=        20
 NAB=    10 NAA=     0 NBB=     0.
 A-vector RMS=  3.2038542D-05 Max=  4.3260895D-05 conv= 1.00D-06.
 RLE energy=       -0.0756517520
 DE(Corr)= -0.75658468E-01 E(CORR)=     -39.801936887     Delta=-7.47D-05
 NORM(A)=   0.10202663D+01
 Iteration Nr.   5
 **********************
 DD1Dir will call FoFMem   1 times, MxPair=        20
 NAB=    10 NAA=     0 NBB=     0.
 A-vector RMS=  4.1272174D-06 Max=  3.2469672D-06 conv= 1.00D-06.
 RLE energy=       -0.0756542988
 DE(Corr)= -0.75653070E-01 E(CORR)=     -39.801931488     Delta= 5.40D-06
 NORM(A)=   0.10202677D+01
 Iteration Nr.   6
 **********************
 DD1Dir will call FoFMem   1 times, MxPair=        20
 NAB=    10 NAA=     0 NBB=     0.
 A-vector RMS=  5.7494531D-07 Max=  7.0337761D-07 conv= 1.00D-06.
 RLE energy=       -0.0756537792
 DE(Corr)= -0.75653965E-01 E(CORR)=     -39.801932383     Delta=-8.95D-07
 NORM(A)=   0.10202674D+01
 Iteration Nr.   7
 **********************
 DD1Dir will call FoFMem   1 times, MxPair=        20
 NAB=    10 NAA=     0 NBB=     0.
 A-vector RMS=  8.7701178D-08 Max=  1.1711402D-07 conv= 1.00D-06.
 RLE energy=       -0.0756537879
 DE(Corr)= -0.75653786E-01 E(CORR)=     -39.801932204     Delta= 1.79D-07
 NORM(A)=   0.10202674D+01
 Iteration Nr.   8
 **********************
 DD1Dir will call FoFMem   1 times, MxPair=        20
 NAB=    10 NAA=     0 NBB=     0.
 A-vector RMS=  9.6331986D-09 Max=  1.9462974D-08 conv= 1.00D-06.
 RLE energy=       -0.0756537898
 DE(Corr)= -0.75653788E-01 E(CORR)=     -39.801932207     Delta=-2.74D-09
 NORM(A)=   0.10202674D+01
 CI/CC converged in    8 iterations to DelEn=-2.74D-09 Conv= 1.00D-08 ErrA1= 9.63D-09 Conv= 1.00D-06
 Wavefunction amplitudes converged. E(Corr)=     -39.801932207    
 Largest amplitude= 4.88D-02

 Z-amplitude iterations

 Iteration Nr.   1
 **********************
 DD1Dir will call FoFMem   1 times, MxPair=        20
 NAB=    10 NAA=     0 NBB=     0.
 A-vector RMS=  5.2420612D-04 Max=  4.2174912D-04 conv= 1.00D-06.
 RLE energy=       -0.0756540142
 DE(Z)= -0.75122860E-01 E(Z)=     -39.801401278     Delta= 5.31D-04
 NORM(A)=   0.10202675D+01
 Iteration Nr.   2
 **********************
 DD1Dir will call FoFMem   1 times, MxPair=        20
 NAB=    10 NAA=     0 NBB=     0.
 A-vector RMS=  5.2434868D-04 Max=  4.2184843D-04 conv= 1.00D-06.
 RLE energy=       -0.0756546595
 DE(Z)= -0.75122923E-01 E(Z)=     -39.801401341     Delta=-6.26D-08
 NORM(A)=   0.10202679D+01
 Iteration Nr.   3
 **********************
 DD1Dir will call FoFMem   1 times, MxPair=        20
 NAB=    10 NAA=     0 NBB=     0.
 A-vector RMS=  5.2482749D-04 Max=  4.2223863D-04 conv= 1.00D-06.
 RLE energy=       -0.0756480554
 DE(Z)= -0.75123098E-01 E(Z)=     -39.801401516     Delta=-1.75D-07
 NORM(A)=   0.10202644D+01
 Iteration Nr.   4
 **********************
 DD1Dir will call FoFMem   1 times, MxPair=        20
 NAB=    10 NAA=     0 NBB=     0.
 A-vector RMS=  5.2007711D-04 Max=  4.1841826D-04 conv= 1.00D-06.
 RLE energy=       -0.0756204304
 DE(Z)= -0.75121313E-01 E(Z)=     -39.801399731     Delta= 1.79D-06
 NORM(A)=   0.10202498D+01
 Iteration Nr.   5
 **********************
 DD1Dir will call FoFMem   1 times, MxPair=        20
 NAB=    10 NAA=     0 NBB=     0.
 A-vector RMS=  5.0013896D-04 Max=  4.0237875D-04 conv= 1.00D-06.
 RLE energy=       -0.0749269885
 DE(Z)= -0.75113866E-01 E(Z)=     -39.801392285     Delta= 7.45D-06
 NORM(A)=   0.10198867D+01
 Iteration Nr.   6
 **********************
 DD1Dir will call FoFMem   1 times, MxPair=        20
 NAB=    10 NAA=     0 NBB=     0.
 A-vector RMS=  1.7158615D-07 Max=  1.2699304D-07 conv= 1.00D-06.
 RLE energy=       -0.0749269583
 DE(Z)= -0.74926963E-01 E(Z)=     -39.801205381     Delta= 1.87D-04
 NORM(A)=   0.10198867D+01
 Iteration Nr.   7
 **********************
 DD1Dir will call FoFMem   1 times, MxPair=        20
 NAB=    10 NAA=     0 NBB=     0.
 A-vector RMS=  6.4453624D-08 Max=  5.8035055D-08 conv= 1.00D-06.
 RLE energy=       -0.0749269441
 DE(Z)= -0.74926950E-01 E(Z)=     -39.801205368     Delta= 1.28D-08
 NORM(A)=   0.10198867D+01
 Iteration Nr.   8
 **********************
 DD1Dir will call FoFMem   1 times, MxPair=        20
 NAB=    10 NAA=     0 NBB=     0.
 A-vector RMS=  4.9366939D-09 Max=  5.7854518D-09 conv= 1.00D-06.
 RLE energy=       -0.0749269446
 DE(Z)= -0.74926944E-01 E(Z)=     -39.801205363     Delta= 5.62D-09
 NORM(A)=   0.10198867D+01
 CI/CC converged in    8 iterations to DelEn= 5.62D-09 Conv= 1.00D-08 ErrA1= 4.94D-09 Conv= 1.00D-06
 Z-amplitudes converged.
 Discarding MO integrals.
 Leave Link  913 at Thu Jan  9 20:09:35 2020, MaxMem=   104857600 cpu:               0.2 elap:               0.3
 (Enter /curc/sw/gaussian/16/g16/l1111.exe)
 Unit  1 TFree=          1588 TCopy=           316.
 Selected functions:
 Compute CCSD 2PDM.
 Form Post-SCF non-separable gradient here.
 IO1PDM=    0 IOW=    0 IO2PDM=    0.
 MDV=     104857600.
 Frozen-core window:  NFC=   1 NFV=   0.
 Leave Link 1111 at Thu Jan  9 20:09:35 2020, MaxMem=   104857600 cpu:               0.1 elap:               0.2
 (Enter /curc/sw/gaussian/16/g16/l1002.exe)
 Minotr:  Closed shell wavefunction.
          Computing CCSD/QCISD derivatives.
          Using Z-Vector for PSCF gradient.
          Skipping F1 and S1 gradient terms here.
          IDoAtm=11111
          Frozen-core window.
          Direct CPHF calculation.
          Differentiating once with respect to electric field.
                with respect to dipole field.
          Differentiating once with respect to nuclear coordinates.
          Using symmetry in CPHF.
          Requested convergence is 1.0D-10 RMS, and 1.0D-09 maximum.
          NewPWx=F KeepS1=T KeepF1=T KeepIn=T MapXYZ=F SortEE=F KeepMc=T.
 Keep R1 ints in memory in symmetry-blocked form, NReq=806351.
 FoFCou: FMM=F IPFlag=           0 FMFlag=           0 FMFlg1=           0
         NFxFlg=           0 DoJE=F BraDBF=F KetDBF=F FulRan=T
         wScrn=  0.000000 ICntrl=       600 IOpCl=  0 I1Cent=           0 NGrid=           0
         NMat0=    1 NMatS0=     45 NMatT0=    0 NMatD0=    1 NMtDS0=    0 NMtDT0=    0
 Petite list used in FoFCou.
          MDV=     104857600 using IRadAn=       5.
          Solving linear equations separately, MaxMat=       0.
          There are     1 degrees of freedom in the 1st order CPHF.  IDoFFX=0 NUNeed=     1.
 LinEq1:  Iter=  0 NonCon=     1 RMS=6.78D-04 Max=3.03D-03 NDo=     1
 AX will form     1 AO Fock derivatives at one time.
 LinEq1:  Iter=  1 NonCon=     1 RMS=1.37D-04 Max=3.54D-04 NDo=     1
 LinEq1:  Iter=  2 NonCon=     1 RMS=7.39D-07 Max=3.30D-06 NDo=     1
 LinEq1:  Iter=  3 NonCon=     0 RMS=6.55D-19 Max=2.36D-18 NDo=     1
 Linear equations converged to 1.000D-10 1.000D-09 after     3 iterations.
 End of Minotr F.D. properties file   721 does not exist.
 End of Minotr F.D. properties file   722 does not exist.
 End of Minotr F.D. properties file   788 does not exist.
 Leave Link 1002 at Thu Jan  9 20:09:36 2020, MaxMem=   104857600 cpu:               0.1 elap:               0.2
 (Enter /curc/sw/gaussian/16/g16/l601.exe)
 Copying SCF densities to generalized density rwf, IOpCl= 0 IROHF=0.

 **********************************************************************

            Population analysis using the SCF density.

 **********************************************************************

 Orbital symmetries:
       Occupied  (A1) (A1) (T2) (T2) (T2)
       Virtual   (T2) (T2) (T2) (A1)
 The electronic state is 1-A1.
 Alpha  occ. eigenvalues --  -11.02864  -0.91891  -0.52570  -0.52570  -0.52570
 Alpha virt. eigenvalues --    0.73092   0.73092   0.73092   0.78108
          Condensed to atoms (all electrons):
               1          2          3          4          5
     1  C    4.723041   0.388607   0.388607   0.388607   0.388607
     2  H    0.388607   0.603069  -0.020348  -0.020348  -0.020348
     3  H    0.388607  -0.020348   0.603069  -0.020348  -0.020348
     4  H    0.388607  -0.020348  -0.020348   0.603069  -0.020348
     5  H    0.388607  -0.020348  -0.020348  -0.020348   0.603069
 Mulliken charges:
               1
     1  C   -0.277469
     2  H    0.069367
     3  H    0.069367
     4  H    0.069367
     5  H    0.069367
 Sum of Mulliken charges =  -0.00000
 Mulliken charges with hydrogens summed into heavy atoms:
               1
     1  C   -0.000000
 Electronic spatial extent (au):  <R**2>=             33.8386
 Charge=             -0.0000 electrons
 Dipole moment (field-independent basis, Debye):
    X=             -0.0000    Y=             -0.0000    Z=              0.0000  Tot=              0.0000
 Quadrupole moment (field-independent basis, Debye-Ang):
   XX=             -7.8391   YY=             -7.8391   ZZ=             -7.8391
   XY=              0.0000   XZ=             -0.0000   YZ=             -0.0000
 Traceless Quadrupole moment (field-independent basis, Debye-Ang):
   XX=             -0.0000   YY=              0.0000   ZZ=             -0.0000
   XY=              0.0000   XZ=             -0.0000   YZ=             -0.0000
 Octapole moment (field-independent basis, Debye-Ang**2):
  XXX=              0.0000  YYY=             -0.0000  ZZZ=              0.0000  XYY=              0.0000
  XXY=             -0.0000  XXZ=             -0.0000  XZZ=              0.0000  YZZ=              0.0000
  YYZ=             -0.0000  XYZ=              0.5582
 Hexadecapole moment (field-independent basis, Debye-Ang**3):
 XXXX=            -13.5073 YYYY=            -13.5073 ZZZZ=            -13.5073 XXXY=              0.0000
 XXXZ=             -0.0000 YYYX=              0.0000 YYYZ=             -0.0000 ZZZX=              0.0000
 ZZZY=              0.0000 XXYY=             -4.1397 XXZZ=             -4.1397 YYZZ=             -4.1397
 XXYZ=             -0.0000 YYXZ=             -0.0000 ZZXY=              0.0000
 N-N= 1.368651801289D+01 E-N=-1.192834580165D+02  KE= 3.950712905580D+01
 Symmetry A    KE= 3.364177868888D+01
 Symmetry B1   KE= 1.955116788973D+00
 Symmetry B2   KE= 1.955116788973D+00
 Symmetry B3   KE= 1.955116788973D+00
 No NMR shielding tensors so no spin-rotation constants.
 Leave Link  601 at Thu Jan  9 20:09:36 2020, MaxMem=   104857600 cpu:               0.1 elap:               0.1
 (Enter /curc/sw/gaussian/16/g16/l701.exe)
 ... and contract with generalized density number  7.
 Compute integral first derivatives.
 Leave Link  701 at Thu Jan  9 20:09:36 2020, MaxMem=   104857600 cpu:               0.1 elap:               0.1
 (Enter /curc/sw/gaussian/16/g16/l702.exe)
 L702 exits ... SP integral derivatives will be done elsewhere.
 Leave Link  702 at Thu Jan  9 20:09:36 2020, MaxMem=   104857600 cpu:               0.0 elap:               0.0
 (Enter /curc/sw/gaussian/16/g16/l703.exe)
 Integral derivatives from FoFJK, PRISM(SPDF).
 Compute integral first derivatives, UseDBF=F ICtDFT=           0.
 Calling FoFJK, ICntrl=  10002127 FMM=F ISym2X=1 I1Cent= 0 IOpClX= 0 NMat=1 NMatS=1 NMatT=0.
 FoFJK:  IHMeth= 1 ICntrl=10002127 DoSepK=F KAlg= 0 I1Cent=           0 FoldK=F
 IRaf=         0 NMat=       1 IRICut=       1 DoRegI=T DoRafI=F ISym2E= 1 IDoP0=0 IntGTp=1.
 FoFCou: FMM=F IPFlag=           0 FMFlag=      100000 FMFlg1=         800
         NFxFlg=           0 DoJE=F BraDBF=F KetDBF=F FulRan=T
         wScrn=  0.000000 ICntrl=  10002127 IOpCl=  0 I1Cent=           0 NGrid=           0
         NMat0=    1 NMatS0=      1 NMatT0=    0 NMatD0=    1 NMtDS0=    0 NMtDT0=    0
 Petite list used in FoFCou.
 Leave Link  703 at Thu Jan  9 20:09:36 2020, MaxMem=   104857600 cpu:               0.1 elap:               0.1
 (Enter /curc/sw/gaussian/16/g16/l716.exe)
 Dipole        = 2.22044605D-16-4.44089210D-16-2.22044605D-16
 ***** Axes restored to original set *****
 -------------------------------------------------------------------
 Center     Atomic                   Forces (Hartrees/Bohr)
 Number     Number              X              Y              Z
 -------------------------------------------------------------------
      1        6          -0.000000000   -0.000000000   -0.000000000
      2        1           0.000000000    0.000000000    0.031764929
      3        1          -0.000000000   -0.029948262   -0.010588309
      4        1          -0.025935956    0.014974131   -0.010588310
      5        1           0.025935956    0.014974131   -0.010588310
 -------------------------------------------------------------------
 Cartesian Forces:  Max     0.031764929 RMS     0.016403339
 Leave Link  716 at Thu Jan  9 20:09:36 2020, MaxMem=   104857600 cpu:               0.0 elap:               0.0
 (Enter /curc/sw/gaussian/16/g16/l103.exe)

 GradGradGradGradGradGradGradGradGradGradGradGradGradGradGradGradGradGrad
 Berny optimization.
 FormGI is forming the generalized inverse of G from B-inverse, IUseBI=4.
 Internal  Forces:  Max     0.031764929 RMS     0.016979069
 Search for a local minimum.
 Step number   1 out of a maximum of   24
 All quantities printed in internal units (Hartrees-Bohrs-Radians)
 RMS Force = .16979D-01 SwitMx=.10000D-02 MixMth= 1
 Mixed Optimization -- RFO/linear search
 Second derivative matrix not updated -- first step.
 The second derivative matrix:
                          R1        R2        R3        R4        A1
           R1           0.37230
           R2           0.00000   0.37230
           R3           0.00000   0.00000   0.37230
           R4           0.00000   0.00000   0.00000   0.37230
           A1           0.00000   0.00000   0.00000   0.00000   0.16000
           A2           0.00000   0.00000   0.00000   0.00000   0.00000
           A3           0.00000   0.00000   0.00000   0.00000   0.00000
           A4           0.00000   0.00000   0.00000   0.00000   0.00000
           A5           0.00000   0.00000   0.00000   0.00000   0.00000
           A6           0.00000   0.00000   0.00000   0.00000   0.00000
           D1           0.00000   0.00000   0.00000   0.00000   0.00000
           D2           0.00000   0.00000   0.00000   0.00000   0.00000
           D3           0.00000   0.00000   0.00000   0.00000   0.00000
           D4           0.00000   0.00000   0.00000   0.00000   0.00000
                          A2        A3        A4        A5        A6
           A2           0.16000
           A3           0.00000   0.16000
           A4           0.00000   0.00000   0.16000
           A5           0.00000   0.00000   0.00000   0.16000
           A6           0.00000   0.00000   0.00000   0.00000   0.16000
           D1           0.00000   0.00000   0.00000   0.00000   0.00000
           D2           0.00000   0.00000   0.00000   0.00000   0.00000
           D3           0.00000   0.00000   0.00000   0.00000   0.00000
           D4           0.00000   0.00000   0.00000   0.00000   0.00000
                          D1        D2        D3        D4
           D1           0.00499
           D2           0.00000   0.00499
           D3           0.00000   0.00000   0.00499
           D4           0.00000   0.00000   0.00000   0.00499
 ITU=  0
     Eigenvalues ---    0.05269   0.05891   0.08766   0.16000   0.16000
     Eigenvalues ---    0.37230   0.37230   0.37230   0.37230
 RFO step:  Lambda=-1.05422770D-02 EMin= 5.26880969D-02
 Linear search not attempted -- first point.
 Iteration  1 RMS(Cart)=  0.04434991 RMS(Int)=  0.00000000
 Iteration  2 RMS(Cart)=  0.00000000 RMS(Int)=  0.00000000
 ITry= 1 IFail=0 DXMaxC= 8.30D-02 DCOld= 1.00D+10 DXMaxT= 3.00D-01 DXLimC= 3.00D+00 Rises=F
 ClnCor:  largest displacement from symmetrization is 1.61D-14 for atom     5.
 Variable       Old X    -DE/DX   Delta X   Delta X   Delta X     New X
                                 (Linear)    (Quad)   (Total)
    R1        2.02201   0.03176   0.00000   0.08297   0.08297   2.10498
    R2        2.02201   0.03176   0.00000   0.08297   0.08297   2.10498
    R3        2.02201   0.03176   0.00000   0.08297   0.08297   2.10498
    R4        2.02201   0.03176   0.00000   0.08297   0.08297   2.10498
    A1        1.91063  -0.00000   0.00000  -0.00000   0.00000   1.91063
    A2        1.91063   0.00000   0.00000   0.00000  -0.00000   1.91063
    A3        1.91063  -0.00000   0.00000  -0.00000  -0.00000   1.91063
    A4        1.91063  -0.00000   0.00000  -0.00000  -0.00000   1.91063
    A5        1.91063   0.00000   0.00000   0.00000  -0.00000   1.91063
    A6        1.91063  -0.00000   0.00000  -0.00000   0.00000   1.91063
    D1       -2.09440   0.00000   0.00000   0.00000  -0.00000  -2.09440
    D2        2.09440   0.00000   0.00000   0.00000   0.00000   2.09440
    D3       -2.09440   0.00000   0.00000   0.00000   0.00000  -2.09440
    D4        2.09440  -0.00000   0.00000  -0.00000   0.00000   2.09440
         Item               Value     Threshold  Converged?
 Maximum Force            0.031765     0.000450     NO 
 RMS     Force            0.016979     0.000300     NO 
 Maximum Displacement     0.082971     0.001800     NO 
 RMS     Displacement     0.044350     0.001200     NO 
 Predicted change in Energy=-5.416292D-03
 Lowest energy point so far.  Saving SCF results.
 GradGradGradGradGradGradGradGradGradGradGradGradGradGradGradGradGradGrad

 Leave Link  103 at Thu Jan  9 20:09:36 2020, MaxMem=   104857600 cpu:               0.0 elap:               0.0
 (Enter /curc/sw/gaussian/16/g16/l202.exe)
                          Input orientation:                          
 ---------------------------------------------------------------------
 Center     Atomic      Atomic             Coordinates (Angstroms)
 Number     Number       Type             X           Y           Z
 ---------------------------------------------------------------------
      1          6           0        0.000000    0.000000   -0.000000
      2          1           0        0.000000    0.000000    1.113906
      3          1           0        0.000000   -1.050201   -0.371302
      4          1           0       -0.909501    0.525101   -0.371302
      5          1           0        0.909501    0.525101   -0.371302
 ---------------------------------------------------------------------
                    Distance matrix (angstroms):
                    1          2          3          4          5
     1  C    0.000000
     2  H    1.113906   0.000000
     3  H    1.113906   1.819002   0.000000
     4  H    1.113906   1.819002   1.819002   0.000000
     5  H    1.113906   1.819002   1.819002   1.819002   0.000000
 Stoichiometry    CH4
 Framework group  TD[O(C),4C3(H)]
 Deg. of freedom     1
 Full point group                 TD      NOp  24
 RotChk:  IX=0 Diff= 1.42D-15
 Largest Abelian subgroup         D2      NOp   4
 Largest concise Abelian subgroup D2      NOp   4
                         Standard orientation:                         
 ---------------------------------------------------------------------
 Center     Atomic      Atomic             Coordinates (Angstroms)
 Number     Number       Type             X           Y           Z
 ---------------------------------------------------------------------
      1          6           0        0.000000    0.000000    0.000000
      2          1           0        0.643114    0.643114    0.643114
      3          1           0       -0.643114   -0.643114    0.643114
      4          1           0       -0.643114    0.643114   -0.643114
      5          1           0        0.643114   -0.643114   -0.643114
 ---------------------------------------------------------------------
 Rotational constants (GHZ):         151.5534810         151.5534810         151.5534810
 Leave Link  202 at Thu Jan  9 20:09:36 2020, MaxMem=   104857600 cpu:               0.0 elap:               0.0
 (Enter /curc/sw/gaussian/16/g16/l301.exe)
 Standard basis: STO-3G (5D, 7F)
 Ernie: Thresh=  0.10000D-02 Tol=  0.10000D-05 Strict=F.
 There are     3 symmetry adapted cartesian basis functions of A   symmetry.
 There are     2 symmetry adapted cartesian basis functions of B1  symmetry.
 There are     2 symmetry adapted cartesian basis functions of B2  symmetry.
 There are     2 symmetry adapted cartesian basis functions of B3  symmetry.
 There are     3 symmetry adapted basis functions of A   symmetry.
 There are     2 symmetry adapted basis functions of B1  symmetry.
 There are     2 symmetry adapted basis functions of B2  symmetry.
 There are     2 symmetry adapted basis functions of B3  symmetry.
     9 basis functions,    27 primitive gaussians,     9 cartesian basis functions
     5 alpha electrons        5 beta electrons
       nuclear repulsion energy        13.1470419093 Hartrees.
 IExCor=    0 DFT=F Ex=HF Corr=None ExCW=0 ScaHFX=  1.000000
 ScaDFX=  1.000000  1.000000  1.000000  1.000000 ScalE2=  1.000000  1.000000
 IRadAn=      5 IRanWt=     -1 IRanGd=            0 ICorTp=0 IEmpDi=  4
 NAtoms=    5 NActive=    5 NUniq=    2 SFac= 4.00D+00 NAtFMM=   60 NAOKFM=F Big=F
 Integral buffers will be    131072 words long.
 Raffenetti 1 integral format.
 Two-electron integral symmetry is turned on.
 Leave Link  301 at Thu Jan  9 20:09:36 2020, MaxMem=   104857600 cpu:               0.0 elap:               0.1
 (Enter /curc/sw/gaussian/16/g16/l302.exe)
 NPDir=0 NMtPBC=     1 NCelOv=     1 NCel=       1 NClECP=     1 NCelD=      1
         NCelK=      1 NCelE2=     1 NClLst=     1 CellRange=     0.0.
 One-electron integrals computed using PRISM.
 One-electron integral symmetry used in STVInt
 NBasis=     9 RedAO= T EigKep=  2.35D-01  NBF=     3     2     2     2
 NBsUse=     9 1.00D-06 EigRej= -1.00D+00 NBFU=     3     2     2     2
 Leave Link  302 at Thu Jan  9 20:09:36 2020, MaxMem=   104857600 cpu:               0.1 elap:               0.1
 (Enter /curc/sw/gaussian/16/g16/l303.exe)
 DipDrv:  MaxL=1.
 Leave Link  303 at Thu Jan  9 20:09:36 2020, MaxMem=   104857600 cpu:               0.1 elap:               0.0
 (Enter /curc/sw/gaussian/16/g16/l401.exe)
 Initial guess from the checkpoint file:  "/rc_scratch/jasm3285/Gau-187016.chk"
 B after Tr=    -0.000000    0.000000   -0.000000
         Rot=    1.000000   -0.000000   -0.000000   -0.000000 Ang=   0.00 deg.
 Guess basis will be translated and rotated to current coordinates.
 JPrj=2 DoOrth=T DoCkMO=T.
 Initial guess orbital symmetries:
       Occupied  (A1) (A1) (T2) (T2) (T2)
       Virtual   (T2) (T2) (T2) (A1)
 The electronic state of the initial guess is 1-A1.
 Generating alternative initial guess.
 ExpMin= 1.69D-01 ExpMax= 7.16D+01 ExpMxC= 7.16D+01 IAcc=2 IRadAn=         4 AccDes= 0.00D+00
 Harris functional with IExCor=  205 and IRadAn=       4 diagonalized for initial guess.
 HarFok:  IExCor=  205 AccDes= 0.00D+00 IRadAn=         4 IDoV= 1 UseB2=F ITyADJ=14
 ICtDFT=  3500011 ScaDFX=  1.000000  1.000000  1.000000  1.000000
 FoFCou: FMM=F IPFlag=           0 FMFlag=      100000 FMFlg1=           0
         NFxFlg=           0 DoJE=T BraDBF=F KetDBF=T FulRan=T
         wScrn=  0.000000 ICntrl=       500 IOpCl=  0 I1Cent=   200000004 NGrid=           0
         NMat0=    1 NMatS0=      1 NMatT0=    0 NMatD0=    1 NMtDS0=    0 NMtDT0=    0
 Petite list used in FoFCou.
 Harris En= -39.8782710252314    
 Leave Link  401 at Thu Jan  9 20:09:37 2020, MaxMem=   104857600 cpu:               0.1 elap:               0.1
 (Enter /curc/sw/gaussian/16/g16/l502.exe)
 Keep R1 ints in memory in symmetry-blocked form, NReq=805617.
 FoFCou: FMM=F IPFlag=           0 FMFlag=           0 FMFlg1=           0
         NFxFlg=           0 DoJE=F BraDBF=F KetDBF=F FulRan=T
         wScrn=  0.000000 ICntrl=       600 IOpCl=  0 I1Cent=           0 NGrid=           0
         NMat0=    1 NMatS0=     45 NMatT0=    0 NMatD0=    1 NMtDS0=    0 NMtDT0=    0
 Petite list used in FoFCou.
 Closed shell SCF:
 Using DIIS extrapolation, IDIIS=  1040.
 NGot=   104857600 LenX=   104855350 LenY=   104854468
 Requested convergence on RMS density matrix=1.00D-08 within 128 cycles.
 Requested convergence on MAX density matrix=1.00D-06.
 Requested convergence on             energy=1.00D-06.
 No special actions if energy rises.

 Cycle   1  Pass 1  IDiag  1:
 E= -39.7234731692548    
 DIIS: error= 4.95D-03 at cycle   1 NSaved=   1.
 NSaved= 1 IEnMin= 1 EnMin= -39.7234731692548     IErMin= 1 ErrMin= 4.95D-03
 ErrMax= 4.95D-03  0.00D+00 EMaxC= 1.00D-01 BMatC= 2.92D-04 BMatP= 2.92D-04
 IDIUse=3 WtCom= 9.51D-01 WtEn= 4.95D-02
 Coeff-Com:  0.100D+01
 Coeff-En:   0.100D+01
 Coeff:      0.100D+01
 Gap=     1.201 Goal=   None    Shift=    0.000
 GapD=    1.201 DampG=2.000 DampE=1.000 DampFc=2.0000 IDamp=-1.
 RMSDP=2.39D-03 MaxDP=8.04D-03              OVMax= 0.00D+00

 Cycle   2  Pass 1  IDiag  1:
 E= -39.7237704652653     Delta-E=       -0.000297296011 Rises=F Damp=F
 DIIS: error= 1.20D-03 at cycle   2 NSaved=   2.
 NSaved= 2 IEnMin= 2 EnMin= -39.7237704652653     IErMin= 2 ErrMin= 1.20D-03
 ErrMax= 1.20D-03  0.00D+00 EMaxC= 1.00D-01 BMatC= 1.19D-05 BMatP= 2.92D-04
 IDIUse=3 WtCom= 9.88D-01 WtEn= 1.20D-02
 Coeff-Com:  0.451D-01 0.955D+00
 Coeff-En:   0.000D+00 0.100D+01
 Coeff:      0.446D-01 0.955D+00
 Gap=     1.201 Goal=   None    Shift=    0.000
 RMSDP=5.07D-04 MaxDP=3.42D-03 DE=-2.97D-04 OVMax= 0.00D+00

 Cycle   3  Pass 1  IDiag  1:
 E= -39.7237833387515     Delta-E=       -0.000012873486 Rises=F Damp=F
 DIIS: error= 1.50D-04 at cycle   3 NSaved=   3.
 NSaved= 3 IEnMin= 3 EnMin= -39.7237833387515     IErMin= 3 ErrMin= 1.50D-04
 ErrMax= 1.50D-04  0.00D+00 EMaxC= 1.00D-01 BMatC= 3.63D-07 BMatP= 1.19D-05
 IDIUse=3 WtCom= 9.98D-01 WtEn= 1.50D-03
 Coeff-Com: -0.248D-01-0.124D-01 0.104D+01
 Coeff-En:   0.000D+00 0.000D+00 0.100D+01
 Coeff:     -0.247D-01-0.124D-01 0.104D+01
 Gap=     1.201 Goal=   None    Shift=    0.000
 RMSDP=1.10D-04 MaxDP=4.70D-04 DE=-1.29D-05 OVMax= 0.00D+00

 Cycle   4  Pass 1  IDiag  1:
 E= -39.7237839890854     Delta-E=       -0.000000650334 Rises=F Damp=F
 DIIS: error= 4.35D-05 at cycle   4 NSaved=   4.
 NSaved= 4 IEnMin= 4 EnMin= -39.7237839890854     IErMin= 4 ErrMin= 4.35D-05
 ErrMax= 4.35D-05  0.00D+00 EMaxC= 1.00D-01 BMatC= 8.81D-09 BMatP= 3.63D-07
 IDIUse=1 WtCom= 1.00D+00 WtEn= 0.00D+00
 Coeff-Com:  0.283D-02-0.192D-01-0.170D+00 0.119D+01
 Coeff:      0.283D-02-0.192D-01-0.170D+00 0.119D+01
 Gap=     1.201 Goal=   None    Shift=    0.000
 RMSDP=2.02D-05 MaxDP=1.44D-04 DE=-6.50D-07 OVMax= 0.00D+00

 Cycle   5  Pass 1  IDiag  1:
 E= -39.7237840037983     Delta-E=       -0.000000014713 Rises=F Damp=F
 DIIS: error= 3.19D-09 at cycle   5 NSaved=   5.
 NSaved= 5 IEnMin= 5 EnMin= -39.7237840037983     IErMin= 5 ErrMin= 3.19D-09
 ErrMax= 3.19D-09  0.00D+00 EMaxC= 1.00D-01 BMatC= 6.97D-17 BMatP= 8.81D-09
 IDIUse=1 WtCom= 1.00D+00 WtEn= 0.00D+00
 Coeff-Com:  0.224D-05-0.197D-04-0.142D-03 0.110D-02 0.999D+00
 Coeff:      0.224D-05-0.197D-04-0.142D-03 0.110D-02 0.999D+00
 Gap=     1.201 Goal=   None    Shift=    0.000
 RMSDP=8.53D-10 MaxDP=2.82D-09 DE=-1.47D-08 OVMax= 0.00D+00

 SCF Done:  E(RHF) =  -39.7237840038     A.U. after    5 cycles
            NFock=  5  Conv=0.85D-09     -V/T= 2.0089
 KE= 3.937495845423D+01 PE=-1.182077019337D+02 EE= 2.596191756643D+01
 Leave Link  502 at Thu Jan  9 20:09:37 2020, MaxMem=   104857600 cpu:               0.1 elap:               0.1
 (Enter /curc/sw/gaussian/16/g16/l801.exe)
 Windowed orbitals will be sorted by symmetry type.
 ExpMin= 1.69D-01 ExpMax= 7.16D+01 ExpMxC= 7.16D+01 IAcc=3 IRadAn=         5 AccDes= 0.00D+00
 HarFok:  IExCor=  205 AccDes= 0.00D+00 IRadAn=         5 IDoV=-2 UseB2=F ITyADJ=14
 ICtDFT= 12500011 ScaDFX=  1.000000  1.000000  1.000000  1.000000
 Largest valence mixing into a core orbital is  1.68D-04
 Largest core mixing into a valence orbital is  1.16D-04
 Range of M.O.s used for correlation:     2     9
 NBasis=     9 NAE=     5 NBE=     5 NFC=     1 NFV=     0
 NROrb=      8 NOA=     4 NOB=     4 NVA=     4 NVB=     4
 Leave Link  801 at Thu Jan  9 20:09:37 2020, MaxMem=   104857600 cpu:               0.1 elap:               0.2
 (Enter /curc/sw/gaussian/16/g16/l804.exe)
 Closed-shell transformation, MDV=   104857600 ITran=4 ISComp=2.
 Semi-Direct transformation.
 ModeAB=           4 MOrb=             4 LenV=     104735940
 LASXX=          133 LTotXX=         133 LenRXX=         333
 LTotAB=         200 MaxLAS=         960 LenRXY=           0
 NonZer=         466 LenScr=      655360 LnRSAI=         960
 LnScr1=      655360 LExtra=           0 Total=      1312013
 MaxDsk=          -1 SrtSym=           T ITran=            4
 DoSDTr:  NPSUse=  1
 JobTyp=0 Pass  1:  I=   1 to   4.
 (rs|ai) integrals will be sorted in core.
 Complete sort for first half transformation.
 First half transformation complete.
 Complete sort for second half transformation.
 Second half transformation complete.
 Spin components of T(2) and E(2):
     alpha-alpha T2 =       0.6049773494D-03 E2=     -0.1600924144D-02
     alpha-beta  T2 =       0.2174276991D-01 E2=     -0.5544562623D-01
     beta-beta   T2 =       0.6049773494D-03 E2=     -0.1600924144D-02
 ANorm=    0.1011411254D+01
 E2 =    -0.5864747452D-01 EUMP2 =    -0.39782431478321D+02
 Leave Link  804 at Thu Jan  9 20:09:37 2020, MaxMem=   104857600 cpu:               0.0 elap:               0.0
 (Enter /curc/sw/gaussian/16/g16/l913.exe)
 CIDS:  MDV=   104857600.
 Frozen-core window:  NFC=   1 NFV=   0.
 IFCWin=0 IBDFC=1 NFBD=     0     0 NFCmp=     0     0 NFFFC=     0     0
 Using DD3R+UMP44R for 1st iteration.
 Using DD4RQ for 2nd and later iterations.
 Keep R2 and R3 ints in memory in symmetry-blocked form, NReq=808157.
 FoFCou: FMM=F IPFlag=           0 FMFlag=           0 FMFlg1=           0
         NFxFlg=           0 DoJE=F BraDBF=F KetDBF=F FulRan=T
         wScrn=  0.000000 ICntrl=       600 IOpCl=  0 I1Cent=           0 NGrid=           0
         NMat0=    1 NMatS0=     45 NMatT0=    0 NMatD0=    1 NMtDS0=    0 NMtDT0=    0
 Petite list used in FoFCou.
 CIDS: In Core Option IDoMem=           1.
 Coupled Cluster theory with single and double substitutions
 ===========================================================
 Iterations=  50 Convergence= 0.100D-07
 Produce multiple copies of IABC intergrals
 Iteration Nr.   1
 **********************
 DD1Dir will call FoFMem   1 times, MxPair=        20
 NAB=    10 NAA=     0 NBB=     0.
 MP4(R+Q)=  0.23163091D-03
 Maximum subspace dimension=  5
 A-vector RMS=  4.4421883D-03 Max=  9.1105306D-03 conv= 1.00D-06.
 RLE energy=       -0.0798254852
 E3=       -0.15791144D-01        EUMP3=      -0.39798222622D+02
 E4(DQ)=   -0.51523997D-02        UMP4(DQ)=   -0.39803375022D+02
 E4(SDQ)=  -0.51534821D-02        UMP4(SDQ)=  -0.39803376105D+02
 VARIATIONAL ENERGIES WITH THE FIRST-ORDER WAVEFUNCTION:
 DE(Corr)= -0.74206877E-01 E(Corr)=     -39.797990881    
 NORM(A)=   0.10214926D+01
 Iteration Nr.   2
 **********************
 DD1Dir will call FoFMem   1 times, MxPair=        20
 NAB=    10 NAA=     0 NBB=     0.
 A-vector RMS=  1.7982243D-03 Max=  2.0508517D-03 conv= 1.00D-06.
 RLE energy=       -0.0823243093
 DE(Corr)= -0.81123077E-01 E(CORR)=     -39.804907081     Delta=-6.92D-03
 NORM(A)=   0.10232384D+01
 Iteration Nr.   3
 **********************
 DD1Dir will call FoFMem   1 times, MxPair=        20
 NAB=    10 NAA=     0 NBB=     0.
 A-vector RMS=  2.9815282D-04 Max=  5.4237325D-04 conv= 1.00D-06.
 RLE energy=       -0.0824810387
 DE(Corr)= -0.82366297E-01 E(CORR)=     -39.806150301     Delta=-1.24D-03
 NORM(A)=   0.10233763D+01
 Iteration Nr.   4
 **********************
 DD1Dir will call FoFMem   1 times, MxPair=        20
 NAB=    10 NAA=     0 NBB=     0.
 A-vector RMS=  4.4084817D-05 Max=  5.6156405D-05 conv= 1.00D-06.
 RLE energy=       -0.0824548758
 DE(Corr)= -0.82464041E-01 E(CORR)=     -39.806248045     Delta=-9.77D-05
 NORM(A)=   0.10233625D+01
 Iteration Nr.   5
 **********************
 DD1Dir will call FoFMem   1 times, MxPair=        20
 NAB=    10 NAA=     0 NBB=     0.
 A-vector RMS=  5.5231907D-06 Max=  4.7260047D-06 conv= 1.00D-06.
 RLE energy=       -0.0824584976
 DE(Corr)= -0.82456733E-01 E(CORR)=     -39.806240737     Delta= 7.31D-06
 NORM(A)=   0.10233647D+01
 Iteration Nr.   6
 **********************
 DD1Dir will call FoFMem   1 times, MxPair=        20
 NAB=    10 NAA=     0 NBB=     0.
 A-vector RMS=  8.4092096D-07 Max=  1.0060522D-06 conv= 1.00D-06.
 RLE energy=       -0.0824577921
 DE(Corr)= -0.82458054E-01 E(CORR)=     -39.806242058     Delta=-1.32D-06
 NORM(A)=   0.10233642D+01
 Iteration Nr.   7
 **********************
 DD1Dir will call FoFMem   1 times, MxPair=        20
 NAB=    10 NAA=     0 NBB=     0.
 A-vector RMS=  1.2517360D-07 Max=  1.8834258D-07 conv= 1.00D-06.
 RLE energy=       -0.0824578058
 DE(Corr)= -0.82457802E-01 E(CORR)=     -39.806241806     Delta= 2.52D-07
 NORM(A)=   0.10233642D+01
 Iteration Nr.   8
 **********************
 DD1Dir will call FoFMem   1 times, MxPair=        20
 NAB=    10 NAA=     0 NBB=     0.
 A-vector RMS=  1.6093697D-08 Max=  3.3693531D-08 conv= 1.00D-06.
 RLE energy=       -0.0824578092
 DE(Corr)= -0.82457807E-01 E(CORR)=     -39.806241811     Delta=-4.51D-09
 NORM(A)=   0.10233642D+01
 CI/CC converged in    8 iterations to DelEn=-4.51D-09 Conv= 1.00D-08 ErrA1= 1.61D-08 Conv= 1.00D-06
 Wavefunction amplitudes converged. E(Corr)=     -39.806241811    
 Largest amplitude= 5.23D-02

 Z-amplitude iterations

 Iteration Nr.   1
 **********************
 DD1Dir will call FoFMem   1 times, MxPair=        20
 NAB=    10 NAA=     0 NBB=     0.
 A-vector RMS=  7.2824581D-04 Max=  5.6641192D-04 conv= 1.00D-06.
 RLE energy=       -0.0824583592
 DE(Z)= -0.81793261E-01 E(Z)=     -39.805577265     Delta= 6.65D-04
 NORM(A)=   0.10233645D+01
 Iteration Nr.   2
 **********************
 DD1Dir will call FoFMem   1 times, MxPair=        20
 NAB=    10 NAA=     0 NBB=     0.
 A-vector RMS=  7.2863452D-04 Max=  5.6667294D-04 conv= 1.00D-06.
 RLE energy=       -0.0824590321
 DE(Z)= -0.81793416E-01 E(Z)=     -39.805577420     Delta=-1.55D-07
 NORM(A)=   0.10233649D+01
 Iteration Nr.   3
 **********************
 DD1Dir will call FoFMem   1 times, MxPair=        20
 NAB=    10 NAA=     0 NBB=     0.
 A-vector RMS=  7.2921246D-04 Max=  5.6714396D-04 conv= 1.00D-06.
 RLE energy=       -0.0824496665
 DE(Z)= -0.81793598E-01 E(Z)=     -39.805577602     Delta=-1.82D-07
 NORM(A)=   0.10233597D+01
 Iteration Nr.   4
 **********************
 DD1Dir will call FoFMem   1 times, MxPair=        20
 NAB=    10 NAA=     0 NBB=     0.
 A-vector RMS=  7.2175160D-04 Max=  5.6134473D-04 conv= 1.00D-06.
 RLE energy=       -0.0824143131
 DE(Z)= -0.81791050E-01 E(Z)=     -39.805575054     Delta= 2.55D-06
 NORM(A)=   0.10233400D+01
 Iteration Nr.   5
 **********************
 DD1Dir will call FoFMem   1 times, MxPair=        20
 NAB=    10 NAA=     0 NBB=     0.
 A-vector RMS=  6.9348792D-04 Max=  5.3936893D-04 conv= 1.00D-06.
 RLE energy=       -0.0815459930
 DE(Z)= -0.81781461E-01 E(Z)=     -39.805565464     Delta= 9.59D-06
 NORM(A)=   0.10228611D+01
 Iteration Nr.   6
 **********************
 DD1Dir will call FoFMem   1 times, MxPair=        20
 NAB=    10 NAA=     0 NBB=     0.
 A-vector RMS=  1.2558189D-07 Max=  1.1828866D-07 conv= 1.00D-06.
 RLE energy=       -0.0815459761
 DE(Z)= -0.81545979E-01 E(Z)=     -39.805329983     Delta= 2.35D-04
 NORM(A)=   0.10228611D+01
 Iteration Nr.   7
 **********************
 DD1Dir will call FoFMem   1 times, MxPair=        20
 NAB=    10 NAA=     0 NBB=     0.
 A-vector RMS=  5.8007983D-08 Max=  6.1793095D-08 conv= 1.00D-06.
 RLE energy=       -0.0815459730
 DE(Z)= -0.81545974E-01 E(Z)=     -39.805329978     Delta= 5.07D-09
 NORM(A)=   0.10228611D+01
 CI/CC converged in    7 iterations to DelEn= 5.07D-09 Conv= 1.00D-08 ErrA1= 5.80D-08 Conv= 1.00D-06
 Z-amplitudes converged.
 Discarding MO integrals.
 Leave Link  913 at Thu Jan  9 20:09:37 2020, MaxMem=   104857600 cpu:               0.2 elap:               0.3
 (Enter /curc/sw/gaussian/16/g16/l1111.exe)
 Unit  1 TFree=          1141 TCopy=        208795.
 Selected functions:
 Compute CCSD 2PDM.
 Form Post-SCF non-separable gradient here.
 IO1PDM=    0 IOW=    0 IO2PDM=    0.
 MDV=     104857600.
 Frozen-core window:  NFC=   1 NFV=   0.
 Leave Link 1111 at Thu Jan  9 20:09:37 2020, MaxMem=   104857600 cpu:               0.1 elap:               0.1
 (Enter /curc/sw/gaussian/16/g16/l1002.exe)
 Minotr:  Closed shell wavefunction.
          Computing CCSD/QCISD derivatives.
          Using Z-Vector for PSCF gradient.
          Skipping F1 and S1 gradient terms here.
          IDoAtm=11111
          Frozen-core window.
          Direct CPHF calculation.
          Differentiating once with respect to electric field.
                with respect to dipole field.
          Differentiating once with respect to nuclear coordinates.
          Using symmetry in CPHF.
          Requested convergence is 1.0D-10 RMS, and 1.0D-09 maximum.
          NewPWx=F KeepS1=T KeepF1=T KeepIn=T MapXYZ=F SortEE=F KeepMc=T.
 Keep R1 ints in memory in symmetry-blocked form, NReq=806351.
 FoFCou: FMM=F IPFlag=           0 FMFlag=           0 FMFlg1=           0
         NFxFlg=           0 DoJE=F BraDBF=F KetDBF=F FulRan=T
         wScrn=  0.000000 ICntrl=       600 IOpCl=  0 I1Cent=           0 NGrid=           0
         NMat0=    1 NMatS0=     45 NMatT0=    0 NMatD0=    1 NMtDS0=    0 NMtDT0=    0
 Petite list used in FoFCou.
          MDV=     104857600 using IRadAn=       5.
          Solving linear equations separately, MaxMat=       0.
          There are     1 degrees of freedom in the 1st order CPHF.  IDoFFX=0 NUNeed=     1.
 LinEq1:  Iter=  0 NonCon=     1 RMS=1.05D-03 Max=4.49D-03 NDo=     1
 AX will form     1 AO Fock derivatives at one time.
 LinEq1:  Iter=  1 NonCon=     1 RMS=1.27D-04 Max=3.15D-04 NDo=     1
 LinEq1:  Iter=  2 NonCon=     1 RMS=8.57D-07 Max=3.82D-06 NDo=     1
 LinEq1:  Iter=  3 NonCon=     0 RMS=3.28D-19 Max=1.11D-18 NDo=     1
 Linear equations converged to 1.000D-10 1.000D-09 after     3 iterations.
 End of Minotr F.D. properties file   721 does not exist.
 End of Minotr F.D. properties file   722 does not exist.
 End of Minotr F.D. properties file   788 does not exist.
 Leave Link 1002 at Thu Jan  9 20:09:38 2020, MaxMem=   104857600 cpu:               0.2 elap:               0.2
 (Enter /curc/sw/gaussian/16/g16/l701.exe)
 ... and contract with generalized density number  7.
 Compute integral first derivatives.
 Leave Link  701 at Thu Jan  9 20:09:38 2020, MaxMem=   104857600 cpu:               0.1 elap:               0.1
 (Enter /curc/sw/gaussian/16/g16/l702.exe)
 L702 exits ... SP integral derivatives will be done elsewhere.
 Leave Link  702 at Thu Jan  9 20:09:38 2020, MaxMem=   104857600 cpu:               0.0 elap:               0.0
 (Enter /curc/sw/gaussian/16/g16/l703.exe)
 Integral derivatives from FoFJK, PRISM(SPDF).
 Compute integral first derivatives, UseDBF=F ICtDFT=           0.
 Calling FoFJK, ICntrl=  10002127 FMM=F ISym2X=1 I1Cent= 0 IOpClX= 0 NMat=1 NMatS=1 NMatT=0.
 FoFJK:  IHMeth= 1 ICntrl=10002127 DoSepK=F KAlg= 0 I1Cent=           0 FoldK=F
 IRaf=         0 NMat=       1 IRICut=       1 DoRegI=T DoRafI=F ISym2E= 1 IDoP0=0 IntGTp=1.
 FoFCou: FMM=F IPFlag=           0 FMFlag=      100000 FMFlg1=         800
         NFxFlg=           0 DoJE=F BraDBF=F KetDBF=F FulRan=T
         wScrn=  0.000000 ICntrl=  10002127 IOpCl=  0 I1Cent=           0 NGrid=           0
         NMat0=    1 NMatS0=      1 NMatT0=    0 NMatD0=    1 NMtDS0=    0 NMtDT0=    0
 Petite list used in FoFCou.
 Leave Link  703 at Thu Jan  9 20:09:38 2020, MaxMem=   104857600 cpu:               0.1 elap:               0.1
 (Enter /curc/sw/gaussian/16/g16/l716.exe)
 Dipole        = 0.00000000D+00 0.00000000D+00-2.22044605D-16
 ***** Axes restored to original set *****
 -------------------------------------------------------------------
 Center     Atomic                   Forces (Hartrees/Bohr)
 Number     Number              X              Y              Z
 -------------------------------------------------------------------
      1        6          -0.000000000    0.000000000   -0.000000000
      2        1          -0.000000000   -0.000000000   -0.004464269
      3        1           0.000000000    0.004208954    0.001488090
      4        1           0.003645061   -0.002104477    0.001488090
      5        1          -0.003645061   -0.002104477    0.001488090
 -------------------------------------------------------------------
 Cartesian Forces:  Max     0.004464269 RMS     0.002305339
 Leave Link  716 at Thu Jan  9 20:09:38 2020, MaxMem=   104857600 cpu:               0.0 elap:               0.0
 (Enter /curc/sw/gaussian/16/g16/l103.exe)

 GradGradGradGradGradGradGradGradGradGradGradGradGradGradGradGradGradGrad
 Berny optimization.
 Using GEDIIS/GDIIS optimizer.
 FormGI is forming the generalized inverse of G from B-inverse, IUseBI=4.
 Internal  Forces:  Max     0.004464269 RMS     0.002386252
 Search for a local minimum.
 Step number   2 out of a maximum of   24
 All quantities printed in internal units (Hartrees-Bohrs-Radians)
 RMS Force = .23863D-02 SwitMx=.10000D-02 MixMth= 1
 Mixed Optimization -- RFO/linear search
 Update second derivatives using D2CorX and points    1    2
 DE= -4.31D-03 DEPred=-5.42D-03 R= 7.96D-01
 TightC=F SS=  1.41D+00  RLast= 1.66D-01 DXNew= 5.0454D-01 4.9783D-01
 Trust test= 7.96D-01 RLast= 1.66D-01 DXMaxT set to 4.98D-01
 The second derivative matrix:
                          R1        R2        R3        R4        A1
           R1           0.38839
           R2           0.01609   0.38839
           R3           0.01609   0.01609   0.38839
           R4           0.01609   0.01609   0.01609   0.38839
           A1          -0.00000  -0.00000  -0.00000  -0.00000   0.16000
           A2           0.00000   0.00000   0.00000   0.00000  -0.00000
           A3          -0.00000  -0.00000  -0.00000  -0.00000   0.00000
           A4           0.00000   0.00000   0.00000   0.00000  -0.00000
           A5           0.00000   0.00000   0.00000   0.00000  -0.00000
           A6          -0.00000  -0.00000  -0.00000  -0.00000   0.00000
           D1           0.00000   0.00000   0.00000   0.00000  -0.00000
           D2           0.00000   0.00000   0.00000   0.00000  -0.00000
           D3           0.00000   0.00000   0.00000   0.00000  -0.00000
           D4          -0.00000  -0.00000  -0.00000  -0.00000   0.00000
                          A2        A3        A4        A5        A6
           A2           0.16000
           A3          -0.00000   0.16000
           A4           0.00000  -0.00000   0.16000
           A5           0.00000  -0.00000   0.00000   0.16000
           A6          -0.00000   0.00000  -0.00000  -0.00000   0.16000
           D1           0.00000  -0.00000   0.00000   0.00000  -0.00000
           D2           0.00000  -0.00000   0.00000   0.00000  -0.00000
           D3           0.00000  -0.00000   0.00000   0.00000  -0.00000
           D4          -0.00000   0.00000  -0.00000  -0.00000   0.00000
                          D1        D2        D3        D4
           D1           0.00499
           D2           0.00000   0.00499
           D3           0.00000   0.00000   0.00499
           D4          -0.00000  -0.00000  -0.00000   0.00499
 ITU=  1  0
 Use linear search instead of GDIIS.
     Eigenvalues ---    0.05269   0.05891   0.08766   0.16000   0.16000
     Eigenvalues ---    0.37230   0.37230   0.37230   0.43665
 RFO step:  Lambda= 0.00000000D+00 EMin= 5.26880969D-02
 Quartic linear search produced a step of -0.13599.
 Iteration  1 RMS(Cart)=  0.00603121 RMS(Int)=  0.00000000
 Iteration  2 RMS(Cart)=  0.00000000 RMS(Int)=  0.00000000
 ITry= 1 IFail=0 DXMaxC= 1.13D-02 DCOld= 1.00D+10 DXMaxT= 4.98D-01 DXLimC= 3.00D+00 Rises=F
 ClnCor:  largest displacement from symmetrization is 9.76D-15 for atom     5.
 Variable       Old X    -DE/DX   Delta X   Delta X   Delta X     New X
                                 (Linear)    (Quad)   (Total)
    R1        2.10498  -0.00446  -0.01128   0.00000  -0.01128   2.09369
    R2        2.10498  -0.00446  -0.01128   0.00000  -0.01128   2.09369
    R3        2.10498  -0.00446  -0.01128  -0.00000  -0.01128   2.09369
    R4        2.10498  -0.00446  -0.01128   0.00000  -0.01128   2.09369
    A1        1.91063   0.00000   0.00000  -0.00000   0.00000   1.91063
    A2        1.91063  -0.00000  -0.00000  -0.00000   0.00000   1.91063
    A3        1.91063   0.00000   0.00000   0.00000  -0.00000   1.91063
    A4        1.91063  -0.00000   0.00000   0.00000  -0.00000   1.91063
    A5        1.91063  -0.00000  -0.00000  -0.00000   0.00000   1.91063
    A6        1.91063   0.00000   0.00000   0.00000   0.00000   1.91063
    D1       -2.09440   0.00000  -0.00000   0.00000   0.00000  -2.09440
    D2        2.09440  -0.00000   0.00000  -0.00000   0.00000   2.09440
    D3       -2.09440  -0.00000   0.00000  -0.00000   0.00000  -2.09440
    D4        2.09440   0.00000   0.00000   0.00000   0.00000   2.09440
         Item               Value     Threshold  Converged?
 Maximum Force            0.004464     0.000450     NO 
 RMS     Force            0.002386     0.000300     NO 
 Maximum Displacement     0.011283     0.001800     NO 
 RMS     Displacement     0.006031     0.001200     NO 
 Predicted change in Energy=-9.030472D-05
 Lowest energy point so far.  Saving SCF results.
 GradGradGradGradGradGradGradGradGradGradGradGradGradGradGradGradGradGrad

 Leave Link  103 at Thu Jan  9 20:09:38 2020, MaxMem=   104857600 cpu:               0.0 elap:               0.0
 (Enter /curc/sw/gaussian/16/g16/l202.exe)
                          Input orientation:                          
 ---------------------------------------------------------------------
 Center     Atomic      Atomic             Coordinates (Angstroms)
 Number     Number       Type             X           Y           Z
 ---------------------------------------------------------------------
      1          6           0        0.000000    0.000000   -0.000000
      2          1           0        0.000000    0.000000    1.107936
      3          1           0       -0.000000   -1.044572   -0.369312
      4          1           0       -0.904626    0.522286   -0.369312
      5          1           0        0.904626    0.522286   -0.369312
 ---------------------------------------------------------------------
                    Distance matrix (angstroms):
                    1          2          3          4          5
     1  C    0.000000
     2  H    1.107936   0.000000
     3  H    1.107936   1.809251   0.000000
     4  H    1.107936   1.809251   1.809251   0.000000
     5  H    1.107936   1.809251   1.809251   1.809251   0.000000
 Stoichiometry    CH4
 Framework group  TD[O(C),4C3(H)]
 Deg. of freedom     1
 Full point group                 TD      NOp  24
 RotChk:  IX=0 Diff= 9.98D-16
 Largest Abelian subgroup         D2      NOp   4
 Largest concise Abelian subgroup D2      NOp   4
                         Standard orientation:                         
 ---------------------------------------------------------------------
 Center     Atomic      Atomic             Coordinates (Angstroms)
 Number     Number       Type             X           Y           Z
 ---------------------------------------------------------------------
      1          6           0        0.000000    0.000000    0.000000
      2          1           0        0.639667    0.639667    0.639667
      3          1           0       -0.639667   -0.639667    0.639667
      4          1           0       -0.639667    0.639667   -0.639667
      5          1           0        0.639667   -0.639667   -0.639667
 ---------------------------------------------------------------------
 Rotational constants (GHZ):         153.1913907         153.1913907         153.1913907
 Leave Link  202 at Thu Jan  9 20:09:38 2020, MaxMem=   104857600 cpu:               0.0 elap:               0.0
 (Enter /curc/sw/gaussian/16/g16/l301.exe)
 Standard basis: STO-3G (5D, 7F)
 Ernie: Thresh=  0.10000D-02 Tol=  0.10000D-05 Strict=F.
 There are     3 symmetry adapted cartesian basis functions of A   symmetry.
 There are     2 symmetry adapted cartesian basis functions of B1  symmetry.
 There are     2 symmetry adapted cartesian basis functions of B2  symmetry.
 There are     2 symmetry adapted cartesian basis functions of B3  symmetry.
 There are     3 symmetry adapted basis functions of A   symmetry.
 There are     2 symmetry adapted basis functions of B1  symmetry.
 There are     2 symmetry adapted basis functions of B2  symmetry.
 There are     2 symmetry adapted basis functions of B3  symmetry.
     9 basis functions,    27 primitive gaussians,     9 cartesian basis functions
     5 alpha electrons        5 beta electrons
       nuclear repulsion energy        13.2178941192 Hartrees.
 IExCor=    0 DFT=F Ex=HF Corr=None ExCW=0 ScaHFX=  1.000000
 ScaDFX=  1.000000  1.000000  1.000000  1.000000 ScalE2=  1.000000  1.000000
 IRadAn=      5 IRanWt=     -1 IRanGd=            0 ICorTp=0 IEmpDi=  4
 NAtoms=    5 NActive=    5 NUniq=    2 SFac= 4.00D+00 NAtFMM=   60 NAOKFM=F Big=F
 Integral buffers will be    131072 words long.
 Raffenetti 1 integral format.
 Two-electron integral symmetry is turned on.
 Leave Link  301 at Thu Jan  9 20:09:38 2020, MaxMem=   104857600 cpu:               0.0 elap:               0.1
 (Enter /curc/sw/gaussian/16/g16/l302.exe)
 NPDir=0 NMtPBC=     1 NCelOv=     1 NCel=       1 NClECP=     1 NCelD=      1
         NCelK=      1 NCelE2=     1 NClLst=     1 CellRange=     0.0.
 One-electron integrals computed using PRISM.
 One-electron integral symmetry used in STVInt
 NBasis=     9 RedAO= T EigKep=  2.31D-01  NBF=     3     2     2     2
 NBsUse=     9 1.00D-06 EigRej= -1.00D+00 NBFU=     3     2     2     2
 Leave Link  302 at Thu Jan  9 20:09:38 2020, MaxMem=   104857600 cpu:               0.1 elap:               0.1
 (Enter /curc/sw/gaussian/16/g16/l303.exe)
 DipDrv:  MaxL=1.
 Leave Link  303 at Thu Jan  9 20:09:38 2020, MaxMem=   104857600 cpu:               0.0 elap:               0.0
 (Enter /curc/sw/gaussian/16/g16/l401.exe)
 Initial guess from the checkpoint file:  "/rc_scratch/jasm3285/Gau-187016.chk"
 B after Tr=    -0.000000   -0.000000    0.000000
         Rot=    1.000000   -0.000000   -0.000000   -0.000000 Ang=   0.00 deg.
 Guess basis will be translated and rotated to current coordinates.
 JPrj=2 DoOrth=T DoCkMO=T.
 Initial guess orbital symmetries:
       Occupied  (A1) (A1) (T2) (T2) (T2)
       Virtual   (T2) (T2) (T2) (A1)
 The electronic state of the initial guess is 1-A1.
 Leave Link  401 at Thu Jan  9 20:09:38 2020, MaxMem=   104857600 cpu:               0.1 elap:               0.1
 (Enter /curc/sw/gaussian/16/g16/l502.exe)
 Keep R1 ints in memory in symmetry-blocked form, NReq=805617.
 FoFCou: FMM=F IPFlag=           0 FMFlag=           0 FMFlg1=           0
         NFxFlg=           0 DoJE=F BraDBF=F KetDBF=F FulRan=T
         wScrn=  0.000000 ICntrl=       600 IOpCl=  0 I1Cent=           0 NGrid=           0
         NMat0=    1 NMatS0=     45 NMatT0=    0 NMatD0=    1 NMtDS0=    0 NMtDT0=    0
 Petite list used in FoFCou.
 Closed shell SCF:
 Using DIIS extrapolation, IDIIS=  1040.
 NGot=   104857600 LenX=   104855350 LenY=   104854468
 Requested convergence on RMS density matrix=1.00D-08 within 128 cycles.
 Requested convergence on MAX density matrix=1.00D-06.
 Requested convergence on             energy=1.00D-06.
 No special actions if energy rises.

 Cycle   1  Pass 1  IDiag  1:
 E= -39.7248355584689    
 DIIS: error= 6.45D-04 at cycle   1 NSaved=   1.
 NSaved= 1 IEnMin= 1 EnMin= -39.7248355584689     IErMin= 1 ErrMin= 6.45D-04
 ErrMax= 6.45D-04  0.00D+00 EMaxC= 1.00D-01 BMatC= 4.76D-06 BMatP= 4.76D-06
 IDIUse=3 WtCom= 9.94D-01 WtEn= 6.45D-03
 Coeff-Com:  0.100D+01
 Coeff-En:   0.100D+01
 Coeff:      0.100D+01
 Gap=     1.208 Goal=   None    Shift=    0.000
 RMSDP=3.04D-04 MaxDP=1.02D-03              OVMax= 0.00D+00

 Cycle   2  Pass 1  IDiag  1:
 E= -39.7248404266026     Delta-E=       -0.000004868134 Rises=F Damp=F
 DIIS: error= 1.55D-04 at cycle   2 NSaved=   2.
 NSaved= 2 IEnMin= 2 EnMin= -39.7248404266026     IErMin= 2 ErrMin= 1.55D-04
 ErrMax= 1.55D-04  0.00D+00 EMaxC= 1.00D-01 BMatC= 1.91D-07 BMatP= 4.76D-06
 IDIUse=3 WtCom= 9.98D-01 WtEn= 1.55D-03
 Coeff-Com:  0.347D-01 0.965D+00
 Coeff-En:   0.000D+00 0.100D+01
 Coeff:      0.346D-01 0.965D+00
 Gap=     1.208 Goal=   None    Shift=    0.000
 RMSDP=6.48D-05 MaxDP=4.47D-04 DE=-4.87D-06 OVMax= 0.00D+00

 Cycle   3  Pass 1  IDiag  1:
 E= -39.7248406346381     Delta-E=       -0.000000208035 Rises=F Damp=F
 DIIS: error= 1.94D-05 at cycle   3 NSaved=   3.
 NSaved= 3 IEnMin= 3 EnMin= -39.7248406346381     IErMin= 3 ErrMin= 1.94D-05
 ErrMax= 1.94D-05  0.00D+00 EMaxC= 1.00D-01 BMatC= 6.08D-09 BMatP= 1.91D-07
 IDIUse=1 WtCom= 1.00D+00 WtEn= 0.00D+00
 Coeff-Com: -0.251D-01-0.131D-01 0.104D+01
 Coeff:     -0.251D-01-0.131D-01 0.104D+01
 Gap=     1.208 Goal=   None    Shift=    0.000
 RMSDP=1.42D-05 MaxDP=6.17D-05 DE=-2.08D-07 OVMax= 0.00D+00

 Cycle   4  Pass 1  IDiag  1:
 E= -39.7248406454961     Delta-E=       -0.000000010858 Rises=F Damp=F
 DIIS: error= 5.50D-06 at cycle   4 NSaved=   4.
 NSaved= 4 IEnMin= 4 EnMin= -39.7248406454961     IErMin= 4 ErrMin= 5.50D-06
 ErrMax= 5.50D-06  0.00D+00 EMaxC= 1.00D-01 BMatC= 1.40D-10 BMatP= 6.08D-09
 IDIUse=1 WtCom= 1.00D+00 WtEn= 0.00D+00
 Coeff-Com:  0.274D-02-0.194D-01-0.159D+00 0.118D+01
 Coeff:      0.274D-02-0.194D-01-0.159D+00 0.118D+01
 Gap=     1.208 Goal=   None    Shift=    0.000
 RMSDP=2.53D-06 MaxDP=1.81D-05 DE=-1.09D-08 OVMax= 0.00D+00

 Cycle   5  Pass 1  IDiag  1:
 E= -39.7248406457267     Delta-E=       -0.000000000231 Rises=F Damp=F
 DIIS: error= 5.07D-11 at cycle   5 NSaved=   5.
 NSaved= 5 IEnMin= 5 EnMin= -39.7248406457267     IErMin= 5 ErrMin= 5.07D-11
 ErrMax= 5.07D-11  0.00D+00 EMaxC= 1.00D-01 BMatC= 1.69D-20 BMatP= 1.40D-10
 IDIUse=1 WtCom= 1.00D+00 WtEn= 0.00D+00
 Coeff-Com: -0.136D-06 0.154D-05 0.874D-05-0.790D-04 0.100D+01
 Coeff:     -0.136D-06 0.154D-05 0.874D-05-0.790D-04 0.100D+01
 Gap=     1.208 Goal=   None    Shift=    0.000
 RMSDP=1.29D-11 MaxDP=4.24D-11 DE=-2.31D-10 OVMax= 0.00D+00

 SCF Done:  E(RHF) =  -39.7248406457     A.U. after    5 cycles
            NFock=  5  Conv=0.13D-10     -V/T= 2.0085
 KE= 3.939159710029D+01 PE=-1.183496868125D+02 EE= 2.601535494730D+01
 Leave Link  502 at Thu Jan  9 20:09:38 2020, MaxMem=   104857600 cpu:               0.1 elap:               0.1
 (Enter /curc/sw/gaussian/16/g16/l801.exe)
 Windowed orbitals will be sorted by symmetry type.
 ExpMin= 1.69D-01 ExpMax= 7.16D+01 ExpMxC= 7.16D+01 IAcc=3 IRadAn=         5 AccDes= 0.00D+00
 HarFok:  IExCor=  205 AccDes= 0.00D+00 IRadAn=         5 IDoV=-2 UseB2=F ITyADJ=14
 ICtDFT= 12500011 ScaDFX=  1.000000  1.000000  1.000000  1.000000
 Largest valence mixing into a core orbital is  1.69D-04
 Largest core mixing into a valence orbital is  1.15D-04
 Range of M.O.s used for correlation:     2     9
 NBasis=     9 NAE=     5 NBE=     5 NFC=     1 NFV=     0
 NROrb=      8 NOA=     4 NOB=     4 NVA=     4 NVB=     4
 Leave Link  801 at Thu Jan  9 20:09:39 2020, MaxMem=   104857600 cpu:               0.2 elap:               0.2
 (Enter /curc/sw/gaussian/16/g16/l804.exe)
 Closed-shell transformation, MDV=   104857600 ITran=4 ISComp=2.
 Semi-Direct transformation.
 ModeAB=           4 MOrb=             4 LenV=     104735940
 LASXX=          133 LTotXX=         133 LenRXX=         333
 LTotAB=         200 MaxLAS=         960 LenRXY=           0
 NonZer=         466 LenScr=      655360 LnRSAI=         960
 LnScr1=      655360 LExtra=           0 Total=      1312013
 MaxDsk=          -1 SrtSym=           T ITran=            4
 DoSDTr:  NPSUse=  1
 JobTyp=0 Pass  1:  I=   1 to   4.
 (rs|ai) integrals will be sorted in core.
 Complete sort for first half transformation.
 First half transformation complete.
 Complete sort for second half transformation.
 Second half transformation complete.
 Spin components of T(2) and E(2):
     alpha-alpha T2 =       0.5868423539D-03 E2=     -0.1564245350D-02
     alpha-beta  T2 =       0.2137786208D-01 E2=     -0.5487390833D-01
     beta-beta   T2 =       0.5868423539D-03 E2=     -0.1564245350D-02
 ANorm=    0.1011212909D+01
 E2 =    -0.5800239903D-01 EUMP2 =    -0.39782843044754D+02
 Leave Link  804 at Thu Jan  9 20:09:39 2020, MaxMem=   104857600 cpu:               0.0 elap:               0.1
 (Enter /curc/sw/gaussian/16/g16/l913.exe)
 CIDS:  MDV=   104857600.
 Frozen-core window:  NFC=   1 NFV=   0.
 IFCWin=0 IBDFC=1 NFBD=     0     0 NFCmp=     0     0 NFFFC=     0     0
 Using DD3R+UMP44R for 1st iteration.
 Using DD4RQ for 2nd and later iterations.
 Keep R2 and R3 ints in memory in symmetry-blocked form, NReq=808157.
 FoFCou: FMM=F IPFlag=           0 FMFlag=           0 FMFlg1=           0
         NFxFlg=           0 DoJE=F BraDBF=F KetDBF=F FulRan=T
         wScrn=  0.000000 ICntrl=       600 IOpCl=  0 I1Cent=           0 NGrid=           0
         NMat0=    1 NMatS0=     45 NMatT0=    0 NMatD0=    1 NMtDS0=    0 NMtDT0=    0
 Petite list used in FoFCou.
 CIDS: In Core Option IDoMem=           1.
 Coupled Cluster theory with single and double substitutions
 ===========================================================
 Iterations=  50 Convergence= 0.100D-07
 Produce multiple copies of IABC intergrals
 Iteration Nr.   1
 **********************
 DD1Dir will call FoFMem   1 times, MxPair=        20
 NAB=    10 NAA=     0 NBB=     0.
 MP4(R+Q)=  0.22667715D-03
[...]
 Molecular mass:    16.03130 amu.
 Principal axes and moments of inertia in atomic units:
                           1         2         3
     Eigenvalues --    11.78096  11.78096  11.78096
           X            0.81189   0.19251  -0.55116
           Y            0.28898   0.68778   0.66592
           Z           -0.50727   0.69992  -0.50277
 This molecule is a spherical top.
 Rotational symmetry number 12.
 Rotational temperatures (Kelvin)      7.35203     7.35203     7.35203
 Rotational constants (GHZ):         153.19139   153.19139   153.19139
 Zero-point vibrational energy     130469.6 (Joules/Mol)
                                   31.18299 (Kcal/Mol)
 Vibrational temperatures:   2213.10  2213.10  2213.10  2527.01  2527.01
          (Kelvin)           4671.86  5006.19  5006.19  5006.19
 
 Zero-point correction=                           0.049693 (Hartree/Particle)
 Thermal correction to Energy=                    0.052542
 Thermal correction to Enthalpy=                  0.053486
 Thermal correction to Gibbs Free Energy=         0.032335
 Sum of electronic and zero-point Energies=            -39.756650
 Sum of electronic and thermal Energies=               -39.753801
 Sum of electronic and thermal Enthalpies=             -39.752857
 Sum of electronic and thermal Free Energies=          -39.774008
 
                     E (Thermal)             CV                S
                      KCal/Mol        Cal/Mol-Kelvin    Cal/Mol-Kelvin
 Total                   32.970              6.218             44.516
 Electronic               0.000              0.000              0.000
 Translational            0.889              2.981             34.261
 Rotational               0.889              2.981             10.217
 Vibrational             31.193              0.256              0.038
                       Q            Log10(Q)             Ln(Q)
 Total Bot       0.133972D-14        -14.872986        -34.246316
 Total V=0       0.964500D+08          7.984302         18.384535
 Vib (Bot)       0.139210D-22        -22.856328        -52.628641
 Vib (V=0)       0.100221D+01          0.000960          0.002210
 Electronic      0.100000D+01          0.000000          0.000000
 Translational   0.252294D+07          6.401907         14.740936
 Rotational      0.381448D+02          1.581435          3.641389
 
                                                         Title Card Required
                                                             IR Spectrum
 
      3       3                                                     1       1                                                        
      4       2                                                     7       5                                                        
      7       4                                                     5       3                                                        
      9       7                                                     6       8                                                        
 
      X                                                                     X                                                        
      X                                                                     X                                                        
      X                                                                     X                                                        
      X                                                                     X                                                        
      X                                                                     X                                                        
      X                                                                     X                                                        
      X                                                                     X                                                        
      X                                                                     X                                                        
      X                                                                     X                                                        
                                                                            X                                                        
                                                                            X                                                        
                                                                            X                                                        
                                                                            X                                                        
                                                                            X                                                        
                                                                            X                                                        
                                                                            X                                                        
                                                                            X                                                        
                                                                            X                                                        
                                                                            X                                                        
                                                                            X                                                        
 
 ***** Axes restored to original set *****
 -------------------------------------------------------------------
 Center     Atomic                   Forces (Hartrees/Bohr)
 Number     Number              X              Y              Z
 -------------------------------------------------------------------
      1        6          -0.000000000    0.000000000    0.000000000
      2        1           0.000000000    0.000000000    0.000005401
      3        1           0.000000000   -0.000005092   -0.000001800
      4        1          -0.000004410    0.000002546   -0.000001800
      5        1           0.000004410    0.000002546   -0.000001800
 -------------------------------------------------------------------
 Cartesian Forces:  Max     0.000005401 RMS     0.000002789
 Force constants in Cartesian coordinates: 
                1             2             3             4             5 
      1  0.698840D+00
      2  0.000000D+00  0.698840D+00
      3  0.000000D+00  0.000000D+00  0.698840D+00
      4 -0.640976D-01  0.000000D+00  0.000000D+00  0.576066D-01
      5  0.000000D+00 -0.640976D-01  0.000000D+00  0.000000D+00  0.576066D-01
      6  0.000000D+00  0.000000D+00 -0.395935D+00  0.000000D+00  0.000000D+00
      7 -0.640976D-01  0.000000D+00  0.000000D+00 -0.121857D-02  0.000000D+00
      8  0.000000D+00 -0.359064D+00 -0.104286D+00  0.000000D+00  0.554597D-02
      9  0.000000D+00 -0.104286D+00 -0.100968D+00  0.000000D+00 -0.392061D-01
     10 -0.285322D+00  0.127724D+00 -0.903147D-01  0.385483D-02 -0.292913D-02
     11  0.127724D+00 -0.137839D+00  0.521432D-01 -0.292913D-02  0.472563D-03
     12 -0.903147D-01  0.521432D-01 -0.100968D+00 -0.339535D-01  0.196030D-01
     13 -0.285322D+00 -0.127724D+00  0.903147D-01  0.385483D-02  0.292913D-02
     14 -0.127724D+00 -0.137839D+00  0.521432D-01  0.292913D-02  0.472563D-03
     15  0.903147D-01  0.521432D-01 -0.100968D+00  0.339535D-01  0.196030D-01
                6             7             8             9            10 
      6  0.414115D+00
      7  0.000000D+00  0.576066D-01
      8  0.637912D-02  0.000000D+00  0.374503D+00
      9 -0.606012D-02  0.000000D+00  0.112040D+00  0.972186D-01
     10  0.552448D-02  0.385483D-02 -0.618490D-02  0.920117D-03  0.295279D+00
     11 -0.318956D-02  0.310353D-01 -0.104925D-01  0.157263D-01 -0.137220D+00
     12 -0.606012D-02  0.140794D-01 -0.706630D-02  0.490497D-02  0.970294D-01
     13 -0.552448D-02  0.385483D-02  0.618490D-02 -0.920117D-03 -0.176662D-01
     14 -0.318956D-02 -0.310353D-01 -0.104925D-01  0.157263D-01  0.186101D-01
     15 -0.606012D-02 -0.140794D-01 -0.706630D-02  0.490497D-02 -0.131593D-01
               11            12            13            14            15 
     11  0.136831D+00
     12 -0.560199D-01  0.972186D-01
     13 -0.186101D-01  0.131593D-01  0.295279D+00
     14  0.110285D-01 -0.865999D-02  0.137220D+00  0.136831D+00
     15 -0.866000D-02  0.490497D-02 -0.970294D-01 -0.560199D-01  0.972187D-01
 FormGI is forming the generalized inverse of G from B-inverse, IUseBI=4.
 Force constants in internal coordinates: 
                1             2             3             4             5 
      1  0.414115D+00
      2 -0.399425D-02  0.414115D+00
      3 -0.399425D-02 -0.399425D-02  0.414115D+00
      4 -0.399425D-02 -0.399425D-02 -0.399425D-02  0.414115D+00
      5  0.180979D-02  0.180979D-02 -0.113638D-02 -0.248320D-02  0.256254D-01
      6  0.283638D-02 -0.731969D-03  0.315661D-02 -0.526103D-02 -0.111809D-01
      7  0.554284D-02 -0.444854D-02 -0.492432D-02  0.383003D-02 -0.169114D-01
      8 -0.731967D-03  0.283638D-02  0.315662D-02 -0.526102D-02 -0.111809D-01
      9 -0.444854D-02  0.554283D-02 -0.492432D-02  0.383003D-02 -0.169114D-01
     10 -0.500850D-02 -0.500850D-02  0.467179D-02  0.534520D-02  0.305592D-01
     11 -0.350522D-02 -0.350522D-02 -0.247427D-02  0.948471D-02 -0.176908D-01
     12  0.288665D-02  0.288665D-02 -0.742281D-02  0.164951D-02  0.106723D-01
     13 -0.380105D-02  0.668770D-02 -0.371141D-02  0.824757D-03  0.533617D-02
     14 -0.668770D-02  0.380105D-02  0.371141D-02 -0.824757D-03 -0.533617D-02
                6             7             8             9            10 
      6  0.485045D-01
      7 -0.293659D-01  0.947517D-01
      8 -0.234977D-02  0.315525D-01  0.485045D-01
      9  0.315525D-01 -0.456221D-01 -0.293659D-01  0.947517D-01
     10 -0.371605D-01 -0.344048D-01 -0.371605D-01 -0.344048D-01  0.112571D+00
     11 -0.145702D-01  0.193732D-01 -0.145702D-01  0.193732D-01  0.808492D-02
     12 -0.123547D-01  0.937344D-02 -0.123547D-01  0.937344D-02 -0.470988D-02
     13 -0.186667D-01 -0.989062D-03  0.631206D-02  0.103625D-01 -0.235494D-02
     14 -0.631206D-02 -0.103625D-01  0.186667D-01  0.989062D-03  0.235494D-02
               11            12            13            14 
     11  0.395116D-01
     12  0.206042D-02  0.245510D-01
     13  0.103021D-02  0.122755D-01  0.249098D-01
     14 -0.103021D-02 -0.122755D-01  0.126343D-01  0.249098D-01
 Leave Link  716 at Thu Jan  9 20:10:01 2020, MaxMem=   104857600 cpu:               0.0 elap:               0.0
 (Enter /curc/sw/gaussian/16/g16/l103.exe)

 GradGradGradGradGradGradGradGradGradGradGradGradGradGradGradGradGradGrad
 Berny optimization.
 Red2BG is reusing G-inverse.
 Internal  Forces:  Max     0.000005401 RMS     0.000002887
 Search for a local minimum.
 Step number   1 out of a maximum of    2
 All quantities printed in internal units (Hartrees-Bohrs-Radians)
 Second derivative matrix not updated -- analytic derivatives used.
 The second derivative matrix:
                          R1        R2        R3        R4        A1
           R1           0.41412
           R2          -0.00399   0.41412
           R3          -0.00399  -0.00399   0.41412
           R4          -0.00399  -0.00399  -0.00399   0.41412
           A1           0.00181   0.00181  -0.00114  -0.00248   0.02563
           A2           0.00284  -0.00073   0.00316  -0.00526  -0.01118
           A3           0.00554  -0.00445  -0.00492   0.00383  -0.01691
           A4          -0.00073   0.00284   0.00316  -0.00526  -0.01118
           A5          -0.00445   0.00554  -0.00492   0.00383  -0.01691
           A6          -0.00501  -0.00501   0.00467   0.00535   0.03056
           D1          -0.00351  -0.00351  -0.00247   0.00948  -0.01769
           D2           0.00289   0.00289  -0.00742   0.00165   0.01067
           D3          -0.00380   0.00669  -0.00371   0.00082   0.00534
           D4          -0.00669   0.00380   0.00371  -0.00082  -0.00534
                          A2        A3        A4        A5        A6
           A2           0.04850
           A3          -0.02937   0.09475
           A4          -0.00235   0.03155   0.04850
           A5           0.03155  -0.04562  -0.02937   0.09475
           A6          -0.03716  -0.03440  -0.03716  -0.03440   0.11257
           D1          -0.01457   0.01937  -0.01457   0.01937   0.00808
           D2          -0.01235   0.00937  -0.01235   0.00937  -0.00471
           D3          -0.01867  -0.00099   0.00631   0.01036  -0.00235
           D4          -0.00631  -0.01036   0.01867   0.00099   0.00235
                          D1        D2        D3        D4
           D1           0.03951
           D2           0.00206   0.02455
           D3           0.00103   0.01228   0.02491
           D4          -0.00103  -0.01228   0.01263   0.02491
 ITU=  0
     Eigenvalues ---    0.05059   0.05708   0.08705   0.17062   0.17101
     Eigenvalues ---    0.40213   0.41878   0.41879   0.41900
 Angle between quadratic step and forces=   0.00 degrees.
 Linear search not attempted -- first point.
 Iteration  1 RMS(Cart)=  0.00000718 RMS(Int)=  0.00000000
 Iteration  2 RMS(Cart)=  0.00000000 RMS(Int)=  0.00000000
 ITry= 1 IFail=0 DXMaxC= 1.34D-05 DCOld= 1.00D+10 DXMaxT= 3.00D-01 DXLimC= 3.00D+00 Rises=F
 ClnCor:  largest displacement from symmetrization is 6.30D-13 for atom     3.
 Variable       Old X    -DE/DX   Delta X   Delta X   Delta X     New X
                                 (Linear)    (Quad)   (Total)
    R1        2.09369   0.00001   0.00000   0.00001   0.00001   2.09371
    R2        2.09369   0.00001   0.00000   0.00001   0.00001   2.09371
    R3        2.09369   0.00001   0.00000   0.00001   0.00001   2.09371
    R4        2.09369   0.00001   0.00000   0.00001   0.00001   2.09371
    A1        1.91063  -0.00000   0.00000   0.00000  -0.00000   1.91063
    A2        1.91063  -0.00000   0.00000   0.00000   0.00000   1.91063
    A3        1.91063   0.00000   0.00000  -0.00000   0.00000   1.91063
    A4        1.91063   0.00000   0.00000  -0.00000   0.00000   1.91063
    A5        1.91063  -0.00000   0.00000   0.00000   0.00000   1.91063
    A6        1.91063  -0.00000   0.00000   0.00000  -0.00000   1.91063
    D1       -2.09440  -0.00000   0.00000  -0.00000   0.00000  -2.09440
    D2        2.09440   0.00000   0.00000   0.00000   0.00000   2.09440
    D3       -2.09440   0.00000   0.00000  -0.00000   0.00000  -2.09440
    D4        2.09440  -0.00000   0.00000  -0.00000   0.00000   2.09440
         Item               Value     Threshold  Converged?
 Maximum Force            0.000005     0.000450     YES
 RMS     Force            0.000003     0.000300     YES
 Maximum Displacement     0.000013     0.001800     YES
 RMS     Displacement     0.000007     0.001200     YES
 Predicted change in Energy=-1.450768D-10
 Optimization completed.
    -- Stationary point found.
                           ----------------------------
                           !   Optimized Parameters   !
                           ! (Angstroms and Degrees)  !
 --------------------------                            --------------------------
 ! Name  Definition              Value          Derivative Info.                !
 --------------------------------------------------------------------------------
 ! R1    R(1,2)                  1.1079         -DE/DX =    0.0                 !
 ! R2    R(1,3)                  1.1079         -DE/DX =    0.0                 !
 ! R3    R(1,4)                  1.1079         -DE/DX =    0.0                 !
 ! R4    R(1,5)                  1.1079         -DE/DX =    0.0                 !
 ! A1    A(2,1,3)              109.4712         -DE/DX =    0.0                 !
 ! A2    A(2,1,4)              109.4712         -DE/DX =    0.0                 !
 ! A3    A(2,1,5)              109.4712         -DE/DX =    0.0                 !
 ! A4    A(3,1,4)              109.4712         -DE/DX =    0.0                 !
 ! A5    A(3,1,5)              109.4712         -DE/DX =    0.0                 !
 ! A6    A(4,1,5)              109.4712         -DE/DX =    0.0                 !
 ! D1    D(2,1,4,3)           -120.0            -DE/DX =    0.0                 !
 ! D2    D(2,1,5,3)            120.0            -DE/DX =    0.0                 !
 ! D3    D(2,1,5,4)           -120.0            -DE/DX =    0.0                 !
 ! D4    D(3,1,5,4)            120.0            -DE/DX =    0.0                 !
 --------------------------------------------------------------------------------
 GradGradGradGradGradGradGradGradGradGradGradGradGradGradGradGradGradGrad

 Leave Link  103 at Thu Jan  9 20:10:01 2020, MaxMem=   104857600 cpu:               0.1 elap:               0.1
 (Enter /curc/sw/gaussian/16/g16/l9999.exe)
 1\1\GINC-BNODE0302\Freq\RCCSD-FC\STO-3G\C1H4\JASM3285\09-Jan-2020\0\\#
 P Geom=AllCheck Guess=TCheck SCRF=Check GenChk RCCSD(FC)/STO-3G Freq\\
 Title Card Required\\0,1\C,0.,0.000000001,-0.000000001\H,0.0000000031,
 0.0000000065,1.1079355109\H,0.,-1.044571619,-0.3693118331\H,-0.9046255
 589,0.5222858073,-0.3693118384\H,0.9046255558,0.5222858091,-0.36931184
 34\\Version=ES64L-G16RevA.03\State=1-A1\HF=-39.7248406\MP2=-39.782843\
 MP3=-39.7984571\MP4D=-39.8037598\MP4DQ=-39.8035332\MP4SDQ=-39.8035341\
 CCSD=-39.8063429\RMSD=0.000e+00\RMSF=2.789e-06\ZeroPoint=0.0496933\The
 rmal=0.0525417\Dipole=0.,0.,0.\DipoleDeriv=-0.0445983,0.,0.,0.,-0.0445
 983,0.,0.,0.,-0.0445983,0.0388963,0.,0.,0.,0.0388963,0.,0.,0.,-0.04434
 28,0.0388963,0.,0.,0.,-0.035094,-0.0261595,0.,-0.0261595,0.0296475,-0.
 0165965,0.0320387,-0.0226548,0.0320387,0.0203987,0.0130798,-0.0226548,
 0.0130798,0.0296475,-0.0165965,-0.0320387,0.0226548,-0.0320387,0.02039
 87,0.0130798,0.0226548,0.0130798,0.0296475\PG=TD [O(C1),4C3(H1)]\NImag
 =0\\0.69883996,0.,0.69883996,0.,0.,0.69883996,-0.06409760,0.,0.,0.0576
 0658,0.,-0.06409760,0.,0.,0.05760658,0.,0.,-0.39593489,0.,0.,0.4141152
 4,-0.06409760,0.,0.,-0.00121857,0.,0.,0.05760658,0.,-0.35906408,-0.104
 28640,0.,0.00554597,0.00637912,0.,0.37450317,0.,-0.10428640,-0.1009684
 1,0.,-0.03920609,-0.00606012,0.,0.11203986,0.09721865,-0.28532246,0.12
 772423,-0.09031467,0.00385483,-0.00292913,0.00552448,0.00385483,-0.006
 18490,0.00092012,0.29527902,0.12772423,-0.13783922,0.05214320,-0.00292
 913,0.00047256,-0.00318956,0.03103526,-0.01049253,0.01572630,-0.137220
 25,0.13683072,-0.09031467,0.05214320,-0.10096841,-0.03395347,0.0196030
 4,-0.00606012,0.01407943,-0.00706630,0.00490497,0.09702937,-0.05601993
 ,0.09721865,-0.28532246,-0.12772423,0.09031467,0.00385483,0.00292913,-
 0.00552448,0.00385483,0.00618490,-0.00092012,-0.01766621,-0.01861008,0
 .01315932,0.29527902,-0.12772423,-0.13783922,0.05214320,0.00292913,0.0
 0047256,-0.00318956,-0.03103526,-0.01049253,0.01572630,0.01861008,0.01
 102851,-0.00865999,0.13722025,0.13683072,0.09031467,0.05214320,-0.1009
 6841,0.03395347,0.01960304,-0.00606012,-0.01407943,-0.00706630,0.00490
 497,-0.01315931,-0.00866000,0.00490497,-0.09702937,-0.05601993,0.09721
 865\\0.,0.,0.,0.,0.,-0.00000540,0.,0.00000509,0.00000180,0.00000441,-0
 .00000255,0.00000180,-0.00000441,-0.00000255,0.00000180\\\@


 IT PROBABLY IS NOT POSSIBLE FOR A SCIENTIST TO INTERROGATE NATURE 
 FROM A WHOLLY DISINTERESTED VIEWPOINT.
 EVEN IF HE HAS NO PARTICULAR AXE TO GRIND, HE IS LIKELY TO HAVE 
 A DISTINCTIVE WAY OF VIEWING NATURE.

                                                   -- JOHN LOSEE
 Job cpu time:       0 days  0 hours  0 minutes 15.0 seconds.
 Elapsed time:       0 days  0 hours  0 minutes 16.2 seconds.
 File lengths (MBytes):  RWF=     61 Int=      0 D2E=      0 Chk=     39 Scr=      2
 Normal termination of Gaussian 16 at Thu Jan  9 20:10:01 2020.
