 Entering Gaussian System, Link 0=g16
 Input=[Cu]Cl_ub3lyp_Def2TZVP.com
 Output=[Cu]Cl_ub3lyp_Def2TZVP.log
 Initial command:
 /curc/sw/gaussian/16/g16/l1.exe "/rc_scratch/vijo5019/Gau-125158.inp" -scrdir="/rc_scratch/vijo5019/"
 Entering Link 1 = /curc/sw/gaussian/16/g16/l1.exe PID=    125159.
  
 Copyright (c) 1988,1990,1992,1993,1995,1998,2003,2009,2016,
            Gaussian, Inc.  All Rights Reserved.
  
 This is part of the Gaussian(R) 16 program.  It is based on
 the Gaussian(R) 09 system (copyright 2009, Gaussian, Inc.),
 the Gaussian(R) 03 system (copyright 2003, Gaussian, Inc.),
 the Gaussian(R) 98 system (copyright 1998, Gaussian, Inc.),
 the Gaussian(R) 94 system (copyright 1995, Gaussian, Inc.),
 the Gaussian 92(TM) system (copyright 1992, Gaussian, Inc.),
 the Gaussian 90(TM) system (copyright 1990, Gaussian, Inc.),
 the Gaussian 88(TM) system (copyright 1988, Gaussian, Inc.),
 the Gaussian 86(TM) system (copyright 1986, Carnegie Mellon
 University), and the Gaussian 82(TM) system (copyright 1983,
 Carnegie Mellon University). Gaussian is a federally registered
 trademark of Gaussian, Inc.
  
 This software contains proprietary and confidential information,
 including trade secrets, belonging to Gaussian, Inc.
  
 This software is provided under written license and may be
 used, copied, transmitted, or stored only in accord with that
 written license.
  
 The following legend is applicable only to US Government
 contracts under FAR:
  
                    RESTRICTED RIGHTS LEGEND
  
 Use, reproduction and disclosure by the US Government is
 subject to restrictions as set forth in subparagraphs (a)
 and (c) of the Commercial Computer Software - Restricted
 Rights clause in FAR 52.227-19.
  
 Gaussian, Inc.
 340 Quinnipiac St., Bldg. 40, Wallingford CT 06492
  
  
 ---------------------------------------------------------------
 Warning -- This program may not be used in any manner that
 competes with the business of Gaussian, Inc. or will provide
 assistance to any competitor of Gaussian, Inc.  The licensee
 of this program is prohibited from giving any competitor of
 Gaussian, Inc. access to this program.  By using this program,
 the user acknowledges that Gaussian, Inc. is engaged in the
 business of creating and licensing software in the field of
 computational chemistry and represents and warrants to the
 licensee that it is not a competitor of Gaussian, Inc. and that
 it will not use this program in any manner prohibited above.
 ---------------------------------------------------------------
  

 Cite this work as:
 Gaussian 16, Revision A.03,
 M. J. Frisch, G. W. Trucks, H. B. Schlegel, G. E. Scuseria, 
 M. A. Robb, J. R. Cheeseman, G. Scalmani, V. Barone, 
 G. A. Petersson, H. Nakatsuji, X. Li, M. Caricato, A. V. Marenich, 
 J. Bloino, B. G. Janesko, R. Gomperts, B. Mennucci, H. P. Hratchian, 
 J. V. Ortiz, A. F. Izmaylov, J. L. Sonnenberg, D. Williams-Young, 
 F. Ding, F. Lipparini, F. Egidi, J. Goings, B. Peng, A. Petrone, 
 T. Henderson, D. Ranasinghe, V. G. Zakrzewski, J. Gao, N. Rega, 
 G. Zheng, W. Liang, M. Hada, M. Ehara, K. Toyota, R. Fukuda, 
 J. Hasegawa, M. Ishida, T. Nakajima, Y. Honda, O. Kitao, H. Nakai, 
 T. Vreven, K. Throssell, J. A. Montgomery, Jr., J. E. Peralta, 
 F. Ogliaro, M. J. Bearpark, J. J. Heyd, E. N. Brothers, K. N. Kudin, 
 V. N. Staroverov, T. A. Keith, R. Kobayashi, J. Normand, 
 K. Raghavachari, A. P. Rendell, J. C. Burant, S. S. Iyengar, 
 J. Tomasi, M. Cossi, J. M. Millam, M. Klene, C. Adamo, R. Cammi, 
 J. W. Ochterski, R. L. Martin, K. Morokuma, O. Farkas, 
 J. B. Foresman, and D. J. Fox, Gaussian, Inc., Wallingford CT, 2016.
 
 ******************************************
 Gaussian 16:  ES64L-G16RevA.03 25-Dec-2016
                 8-Jun-2020 
 ******************************************
 %nprocshared=24
 Will use up to   24 processors via shared memory.
 ----------------------------------------------------------------------
 # opt=(calcfc,maxcycles=200) freq ub3lyp/Def2TZVP nosymm scf=(qc,maxcy
 cle=3000) geom=connectivity
 ----------------------------------------------------------------------
 1/6=200,10=4,18=20,19=15,26=3,38=1,57=2/1,3;
 2/9=110,12=2,15=1,17=6,18=5,40=1/2;
 3/5=44,7=101,11=2,25=1,30=1,71=2,74=-5,116=2,140=1/1,2,3;
 4//1;
 5/5=2,7=3000,8=3,38=5/8;
 8/6=4,10=90,11=11/1;
 11/6=1,8=1,9=11,15=111,16=1,31=1/1,2,10;
 10/6=1,13=1,31=1/2;
 6/7=2,8=2,9=2,10=2,28=1/1;
 7/10=1,18=20,25=1,30=1/1,2,3,16;
 1/6=200,10=4,18=20,19=15,26=3/3(2);
 2/9=110,15=1/2;
 99//99;
 2/9=110,15=1/2;
 3/5=44,7=101,11=2,25=1,30=1,71=1,74=-5,116=2/1,2,3;
 4/5=5,16=3,69=1/1;
 5/5=2,7=3000,8=3,38=5/8;
 7/30=1/1,2,3,16;
 1/6=200,18=20,19=15,26=3/3(-5);
 2/9=110,15=1/2;
 6/7=2,8=2,9=2,10=2,19=2,28=1/1;
 99/9=1/99;
 ----------------------------------------------------------
 Autogenerated with dbale for SMILES [Cu]Cl_ub3lyp_Def2TZVP
 ----------------------------------------------------------
 Symbolic Z-matrix:
 Charge =  0 Multiplicity = 1
 Cu                    1.06462  -0.08396   0.04436 
 Cl                    3.33806  -0.08396   0.04436 
 

 GradGradGradGradGradGradGradGradGradGradGradGradGradGradGradGradGradGrad
 Berny optimization.
 Initialization pass.
                           ----------------------------
                           !    Initial Parameters    !
                           ! (Angstroms and Degrees)  !
 --------------------------                            --------------------------
 ! Name  Definition              Value          Derivative Info.                !
 --------------------------------------------------------------------------------
 ! R1    R(1,2)                  2.2734         calculate D2E/DX2 analytically  !
 --------------------------------------------------------------------------------
 Trust Radius=3.00D-01 FncErr=1.00D-07 GrdErr=1.00D-06 EigMax=2.50D+02 EigMin=1.00D-04
 Number of steps in this run=    100 maximum allowed number of steps=    100.
 GradGradGradGradGradGradGradGradGradGradGradGradGradGradGradGradGradGrad

                          Input orientation:                          
 ---------------------------------------------------------------------
 Center     Atomic      Atomic             Coordinates (Angstroms)
 Number     Number       Type             X           Y           Z
 ---------------------------------------------------------------------
      1         29           0        1.064620   -0.083960    0.044360
      2         17           0        3.338060   -0.083960    0.044360
 ---------------------------------------------------------------------
 Symmetry turned off by external request.
 Stoichiometry    ClCu
 Framework group  C*V[C*(ClCu)]
 Deg. of freedom     1
 Full point group                 C*V     NOp   4
 Rotational constants (GHZ):           0.0000000           4.3500042           4.3500042
 Standard basis: def2TZVP (5D, 7F)
    82 basis functions,   171 primitive gaussians,    94 cartesian basis functions
    23 alpha electrons       23 beta electrons
       nuclear repulsion energy       114.7531340099 Hartrees.
 NAtoms=    2 NActive=    2 NUniq=    2 SFac= 1.00D+00 NAtFMM=   60 NAOKFM=F Big=F
 Integral buffers will be    131072 words long.
 Raffenetti 2 integral format.
 Two-electron integral symmetry is turned off.
 One-electron integrals computed using PRISM.
   1 Symmetry operations used in ECPInt.
 ECPInt:  NShTT=     406 NPrTT=    2111 LenC2=     398 LenP2D=    1714.
 LDataN:  DoStor=T MaxTD1= 6 Len=  172
 NBasis=    82 RedAO= T EigKep=  1.82D-02  NBF=    82
 NBsUse=    82 1.00D-06 EigRej= -1.00D+00 NBFU=    82
 ExpMin= 3.88D-02 ExpMax= 3.78D+05 ExpMxC= 3.65D+03 IAcc=3 IRadAn=         5 AccDes= 0.00D+00
 Harris functional with IExCor=  402 and IRadAn=       5 diagonalized for initial guess.
 HarFok:  IExCor=  402 AccDes= 0.00D+00 IRadAn=         5 IDoV= 1 UseB2=F ITyADJ=14
 ICtDFT=  3500011 ScaDFX=  1.000000  1.000000  1.000000  1.000000
 FoFCou: FMM=F IPFlag=           0 FMFlag=      100000 FMFlg1=           0
         NFxFlg=           0 DoJE=T BraDBF=F KetDBF=T FulRan=T
         wScrn=  0.000000 ICntrl=       500 IOpCl=  0 I1Cent=   200000004 NGrid=           0
         NMat0=    1 NMatS0=      1 NMatT0=    0 NMatD0=    1 NMtDS0=    0 NMtDT0=    0
 Symmetry not used in FoFCou.
 Initial guess <Sx>= 0.0000 <Sy>= 0.0000 <Sz>= 0.0000 <S**2>= 0.0000 S= 0.0000
 Keep R1 and R2 ints in memory in canonical form, NReq=33590912.
 Gradient too large for Newton-Raphson -- use scaled steepest descent instead.
     Minimum is close to point  2 DX= -2.20D-02 DF= -3.47D-03 DXR=  7.93D-02 DFR=  6.33D-03 which will be used.
 Gradient too large for Newton-Raphson -- use scaled steepest descent instead.
     Accept linear search using points  1 and  2.
 Gradient too large for Newton-Raphson -- use scaled steepest descent instead.
     Accept linear search using points  2 and  3.
 Gradient too large for Newton-Raphson -- use scaled steepest descent instead.
     Accept linear search using points  3 and  4.
 Gradient too large for Newton-Raphson -- use scaled steepest descent instead.
     Accept linear search using points  1 and  2.
 Gradient too large for Newton-Raphson -- use scaled steepest descent instead.
     Minimum is close to point  3 DX=  7.27D-02 DF= -5.65D-06 DXR=  6.77D-02 DFR=  4.70D-03 which will be used.
 Gradient too large for Newton-Raphson -- use scaled steepest descent instead.
     Accept linear search using points  1 and  2.
 LinEq1:  Iter=  0 NonCon=     1 RMS=3.58D-04 Max=1.22D-02 NDo=     1
 AX will form     1 AO Fock derivatives at one time.
 LinEq1:  Iter=  1 NonCon=     1 RMS=5.51D-05 Max=1.03D-03 NDo=     1
 LinEq1:  Iter=  2 NonCon=     1 RMS=6.56D-05 Max=1.34D-03 NDo=     1
 LinEq1:  Iter=  3 NonCon=     1 RMS=6.63D-05 Max=9.24D-04 NDo=     1
 LinEq1:  Iter=  4 NonCon=     1 RMS=1.68D-05 Max=2.83D-04 NDo=     1
 LinEq1:  Iter=  5 NonCon=     1 RMS=5.16D-06 Max=6.01D-05 NDo=     1
 LinEq1:  Iter=  6 NonCon=     1 RMS=2.04D-06 Max=2.99D-05 NDo=     1
 LinEq1:  Iter=  7 NonCon=     1 RMS=2.48D-07 Max=2.69D-06 NDo=     1
 LinEq1:  Iter=  8 NonCon=     1 RMS=3.02D-08 Max=4.14D-07 NDo=     1
 LinEq1:  Iter=  9 NonCon=     1 RMS=5.59D-09 Max=8.86D-08 NDo=     1
 LinEq1:  Iter= 10 NonCon=     0 RMS=6.23D-10 Max=8.35D-09 NDo=     1
 Linear equations converged to 5.210D-09 5.210D-08 after    10 iterations.
     Accept linear search using points  1 and  2.
     Minimum is close to point  2 DX= -6.18D-03 DF= -3.50D-09 DXR=  6.22D-03 DFR=  3.89D-05 which will be used.
 LinEq1:  Iter=  0 NonCon=     1 RMS=1.12D-05 Max=2.06D-04 NDo=     1
 LinEq1:  Iter=  1 NonCon=     1 RMS=6.65D-06 Max=1.72D-04 NDo=     1
 LinEq1:  Iter=  2 NonCon=     1 RMS=3.60D-06 Max=8.79D-05 NDo=     1
 LinEq1:  Iter=  3 NonCon=     1 RMS=2.08D-06 Max=3.02D-05 NDo=     1
 LinEq1:  Iter=  4 NonCon=     1 RMS=8.10D-07 Max=8.67D-06 NDo=     1
 LinEq1:  Iter=  5 NonCon=     1 RMS=2.29D-07 Max=4.21D-06 NDo=     1
 LinEq1:  Iter=  6 NonCon=     1 RMS=3.32D-08 Max=5.05D-07 NDo=     1
 LinEq1:  Iter=  7 NonCon=     1 RMS=6.71D-09 Max=7.06D-08 NDo=     1
 LinEq1:  Iter=  8 NonCon=     0 RMS=9.97D-10 Max=1.47D-08 NDo=     1
 Linear equations converged to 5.148D-09 5.148D-08 after     8 iterations.
     Accept linear search using points  2 and  3.
     Minimum is close to point  2 DX=  2.27D-04 DF=  0.00D+00 DXR=  2.27D-04 DFR=  0.00D+00 which will be used.
 SCF Done:  E(UB3LYP) =  -2100.82928118     a.u. after   10 cycles
            Convg  =    0.6307D-07                    40 Fock formations.
              S**2 =  0.0000                  -V/T =  2.0015
 <Sx>= 0.0000 <Sy>= 0.0000 <Sz>= 0.0000 <S**2>= 0.0000 S= 0.0000
 <L.S>=  0.00000000000    
 Annihilation of the first spin contaminant:
 S**2 before annihilation     0.0000,   after    -0.0000
 DoSCS=F DFT=T ScalE2(SS,OS)=  1.000000  1.000000
 Range of M.O.s used for correlation:     1    82
 NBasis=    82 NAE=    23 NBE=    23 NFC=     0 NFV=     0
 NROrb=     82 NOA=    23 NOB=    23 NVA=    59 NVB=    59
   1 Symmetry operations used in ECPInt.
 ECPInt:  NShTT=     406 NPrTT=    2111 LenC2=     398 LenP2D=    1714.
 LDataN:  DoStor=T MaxTD1= 7 Len=  274
 Symmetrizing basis deriv contribution to polar:
 IMax=3 JMax=2 DiffMx= 0.00D+00
 G2DrvN: will do     3 centers at a time, making    1 passes.
 Calling FoFCou, ICntrl=  3107 FMM=F I1Cent=   0 AccDes= 0.00D+00.
 End of G2Drv F.D. properties file   721 does not exist.
 End of G2Drv F.D. properties file   722 does not exist.
 End of G2Drv F.D. properties file   788 does not exist.
          IDoAtm=11
          Differentiating once with respect to nuclear coordinates.
 Keep R1 and R2 ints in memory in canonical form, NReq=33508546.
          There are     9 degrees of freedom in the 1st order CPHF.  IDoFFX=6 NUNeed=     0.
      3 vectors produced by pass  0 Test12= 3.02D-14 1.11D-08 XBig12= 3.51D-02 9.29D-02.
 AX will form     3 AO Fock derivatives at one time.
      3 vectors produced by pass  1 Test12= 3.02D-14 1.11D-08 XBig12= 2.73D-02 3.42D-02.
      3 vectors produced by pass  2 Test12= 3.02D-14 1.11D-08 XBig12= 3.71D-02 9.77D-02.
      3 vectors produced by pass  3 Test12= 3.02D-14 1.11D-08 XBig12= 7.56D-03 2.86D-02.
      3 vectors produced by pass  4 Test12= 3.02D-14 1.11D-08 XBig12= 4.62D-03 2.36D-02.
      3 vectors produced by pass  5 Test12= 3.02D-14 1.11D-08 XBig12= 1.15D-04 2.01D-03.
      3 vectors produced by pass  6 Test12= 3.02D-14 1.11D-08 XBig12= 4.44D-06 5.89D-04.
      3 vectors produced by pass  7 Test12= 3.02D-14 1.11D-08 XBig12= 8.03D-08 6.82D-05.
      3 vectors produced by pass  8 Test12= 3.02D-14 1.11D-08 XBig12= 7.47D-10 5.20D-06.
      1 vectors produced by pass  9 Test12= 3.02D-14 1.11D-08 XBig12= 2.12D-11 8.21D-07.
      1 vectors produced by pass 10 Test12= 3.02D-14 1.11D-08 XBig12= 2.81D-13 1.04D-07.
      1 vectors produced by pass 11 Test12= 3.02D-14 1.11D-08 XBig12= 7.38D-15 1.80D-08.
 InvSVY:  IOpt=1 It=  1 EMax= 2.22D-16
 Solved reduced A of dimension    30 with     3 vectors.
 End of Minotr F.D. properties file   721 does not exist.
 End of Minotr F.D. properties file   722 does not exist.
 End of Minotr F.D. properties file   788 does not exist.

 **********************************************************************

            Population analysis using the SCF density.

 **********************************************************************

 Alpha  occ. eigenvalues -- -323.03532-101.46270 -38.82879 -34.03385 -34.03385
 Alpha  occ. eigenvalues --  -34.03307  -9.39323  -7.15267  -7.14741  -7.14741
 Alpha  occ. eigenvalues --   -4.32096  -2.81668  -2.81450  -2.81450  -0.74171
 Alpha  occ. eigenvalues --   -0.34191  -0.31986  -0.31986  -0.30906  -0.30906
 Alpha  occ. eigenvalues --   -0.28019  -0.26322  -0.26322
 Alpha virt. eigenvalues --   -0.13155   0.05577   0.05577   0.08142   0.11031
 Alpha virt. eigenvalues --    0.16426   0.16426   0.18958   0.18958   0.24623
 Alpha virt. eigenvalues --    0.40124   0.40124   0.40791   0.49732   0.49732
 Alpha virt. eigenvalues --    0.51862   0.55140   0.55140   0.85036   0.85659
 Alpha virt. eigenvalues --    0.85659   0.89181   0.89181   1.13798   1.78576
 Alpha virt. eigenvalues --    1.78576   1.84055   1.84055   1.92698   2.05836
 Alpha virt. eigenvalues --    2.06305   2.06305   2.13472   2.13472   2.14288
 Alpha virt. eigenvalues --    2.14288   2.18992   2.18992   2.27270   2.27270
 Alpha virt. eigenvalues --    2.28767   2.48138   3.02920   3.62246   3.62247
 Alpha virt. eigenvalues --    3.66367   3.66367   3.74109   5.74527   5.74528
 Alpha virt. eigenvalues --    5.74742   5.74742   5.74759   5.74759   5.78242
 Alpha virt. eigenvalues --   10.72753  10.72753  10.80357  24.43857
  Beta  occ. eigenvalues -- -323.03532-101.46270 -38.82879 -34.03385 -34.03385
  Beta  occ. eigenvalues --  -34.03307  -9.39323  -7.15267  -7.14741  -7.14741
  Beta  occ. eigenvalues --   -4.32096  -2.81668  -2.81450  -2.81450  -0.74171
  Beta  occ. eigenvalues --   -0.34191  -0.31986  -0.31986  -0.30906  -0.30906
  Beta  occ. eigenvalues --   -0.28019  -0.26322  -0.26322
  Beta virt. eigenvalues --   -0.13155   0.05577   0.05577   0.08142   0.11031
  Beta virt. eigenvalues --    0.16426   0.16426   0.18958   0.18958   0.24623
  Beta virt. eigenvalues --    0.40124   0.40124   0.40791   0.49732   0.49732
  Beta virt. eigenvalues --    0.51862   0.55140   0.55140   0.85036   0.85659
  Beta virt. eigenvalues --    0.85659   0.89181   0.89181   1.13798   1.78576
  Beta virt. eigenvalues --    1.78576   1.84055   1.84055   1.92698   2.05836
  Beta virt. eigenvalues --    2.06305   2.06305   2.13472   2.13472   2.14288
  Beta virt. eigenvalues --    2.14288   2.18992   2.18992   2.27270   2.27270
  Beta virt. eigenvalues --    2.28767   2.48138   3.02920   3.62246   3.62247
  Beta virt. eigenvalues --    3.66367   3.66367   3.74109   5.74527   5.74528
  Beta virt. eigenvalues --    5.74742   5.74742   5.74759   5.74759   5.78242
  Beta virt. eigenvalues --   10.72753  10.72753  10.80357  24.43857
          Condensed to atoms (all electrons):
               1          2
     1  Cu  28.296819   0.266159
     2  Cl   0.266159  17.170863
          Atomic-Atomic Spin Densities.
               1          2
     1  Cu   0.000000  -0.000000
     2  Cl  -0.000000   0.000000
 Mulliken charges and spin densities:
               1          2
     1  Cu   0.437022   0.000000
     2  Cl  -0.437022   0.000000
 Sum of Mulliken charges =   0.00000   0.00000
 Mulliken charges and spin densities with hydrogens summed into heavy atoms:
               1          2
     1  Cu   0.437022   0.000000
     2  Cl  -0.437022   0.000000
 APT charges:
               1
     1  Cu   0.271788
     2  Cl  -0.271788
 Sum of APT charges =   0.00000
 APT charges with hydrogens summed into heavy atoms:
               1
     1  Cu   0.271788
     2  Cl  -0.271788
 Electronic spatial extent (au):  <R**2>=            866.7528
 Charge=              0.0000 electrons
 Dipole moment (field-independent basis, Debye):
    X=             -5.5779    Y=             -0.0000    Z=              0.0000  Tot=              5.5779
 Quadrupole moment (field-independent basis, Debye-Ang):
   XX=            -45.0448   YY=            -25.5257   ZZ=            -25.5257
   XY=              0.4683   XZ=             -0.2474   YZ=             -0.0000
 Traceless Quadrupole moment (field-independent basis, Debye-Ang):
   XX=            -13.0127   YY=              6.5064   ZZ=              6.5064
   XY=              0.4683   XZ=             -0.2474   YZ=             -0.0000
 Octapole moment (field-independent basis, Debye-Ang**2):
  XXX=           -234.2433  YYY=              6.4294  ZZZ=             -3.3970  XYY=            -59.7532
  XXY=              3.7820  XXZ=             -1.9982  XZZ=            -59.7248  YZZ=              2.1431
  YYZ=             -1.1323  XYZ=              0.0208
 Hexadecapole moment (field-independent basis, Debye-Ang**3):
 XXXX=          -1180.1801 YYYY=            -29.0194 ZZZZ=            -28.2411 XXXY=             19.6671
 XXXZ=            -10.3910 YYYX=             15.0440 YYYZ=              0.2852 ZZZX=             -7.9472
 ZZZY=              0.2852 XXYY=           -179.1520 XXZZ=           -178.9231 YYZZ=             -9.5434
 XXYZ=              0.1678 YYXZ=             -2.6507 ZZXY=              5.0145
 N-N= 1.147531340099D+02 E-N=-5.250102253040D+03  KE= 2.097590560050D+03
  Exact polarizability:   0.000   0.000   0.000   0.000   0.000   0.000
 Approx polarizability:  80.837  -0.000  32.849   0.000   0.000  32.849
                          Isotropic Fermi Contact Couplings
        Atom                 a.u.       MegaHertz       Gauss      10(-4) cm-1
     1  Cu(63)             0.00000       0.00000       0.00000       0.00000
     2  Cl(35)            -0.00000      -0.00000      -0.00000      -0.00000
 --------------------------------------------------------
       Center         ----  Spin Dipole Couplings  ----
                      3XX-RR        3YY-RR        3ZZ-RR
 --------------------------------------------------------
     1   Atom        0.000000      0.000000      0.000000
     2   Atom        0.000000      0.000000      0.000000
 --------------------------------------------------------
                        XY            XZ            YZ
 --------------------------------------------------------
     1   Atom        0.000000      0.000000      0.000000
     2   Atom        0.000000      0.000000      0.000000
 --------------------------------------------------------


 ---------------------------------------------------------------------------------
              Anisotropic Spin Dipole Couplings in Principal Axis System
 ---------------------------------------------------------------------------------

       Atom             a.u.   MegaHertz   Gauss  10(-4) cm-1        Axes

              Baa     0.0000     0.000     0.000     0.000  1.0000  0.0000  0.0000
     1 Cu(63) Bbb     0.0000     0.000     0.000     0.000 -0.0000  1.0000  0.0000
              Bcc     0.0000     0.000     0.000     0.000  0.0000  0.0000  1.0000
 
              Baa     0.0000     0.000     0.000     0.000  1.0000  0.0000  0.0000
     2 Cl(35) Bbb     0.0000     0.000     0.000     0.000 -0.0000  1.0000  0.0000
              Bcc     0.0000     0.000     0.000     0.000  0.0000  0.0000  1.0000
 

 ---------------------------------------------------------------------------------

   1 Symmetry operations used in ECPInt.
 ECPInt:  NShTT=     406 NPrTT=    2111 LenC2=     398 LenP2D=    1714.
 LDataN:  DoStor=T MaxTD1= 8 Len=  415
 Calling FoFJK, ICntrl=    100147 FMM=F ISym2X=0 I1Cent= 0 IOpClX= 1 NMat=1 NMatS=1 NMatT=0.
 -------------------------------------------------------------------
 Center     Atomic                   Forces (Hartrees/Bohr)
 Number     Number              X              Y              Z
 -------------------------------------------------------------------
      1       29           0.029306614    0.000000000    0.000000000
      2       17          -0.029306614   -0.000000000   -0.000000000
 -------------------------------------------------------------------
 Cartesian Forces:  Max     0.029306614 RMS     0.016920181
 FormGI is forming the generalized inverse of G from B-inverse, IUseBI=4.

 GradGradGradGradGradGradGradGradGradGradGradGradGradGradGradGradGradGrad
 Berny optimization.
 Internal  Forces:  Max     0.029306614 RMS     0.029306614
 Search for a local minimum.
 Step number   1 out of a maximum of  100
 All quantities printed in internal units (Hartrees-Bohrs-Radians)
 Mixed Optimization -- RFO/linear search
 Second derivative matrix not updated -- analytic derivatives used.
 The second derivative matrix:
                          R1
           R1           0.05297
 ITU=  0
     Eigenvalues ---    0.05297
 RFO step:  Lambda=-1.30156361D-02 EMin= 5.29725038D-02
 Linear search not attempted -- first point.
 Maximum step size (   0.300) exceeded in Quadratic search.
    -- Step size scaled by   0.675
 Iteration  1 RMS(Cart)=  0.14142136 RMS(Int)=  0.10000000
 Iteration  2 RMS(Cart)=  0.07071068 RMS(Int)=  0.00000000
 Iteration  3 RMS(Cart)=  0.00000000 RMS(Int)=  0.00000000
 Variable       Old X    -DE/DX   Delta X   Delta X   Delta X     New X
                                 (Linear)    (Quad)   (Total)
    R1        4.29618  -0.02931   0.00000  -0.30000  -0.30000   3.99618
         Item               Value     Threshold  Converged?
 Maximum Force            0.029307     0.000450     NO 
 RMS     Force            0.029307     0.000300     NO 
 Maximum Displacement     0.150000     0.001800     NO 
 RMS     Displacement     0.212132     0.001200     NO 
 Predicted change in Energy=-6.408221D-03
 GradGradGradGradGradGradGradGradGradGradGradGradGradGradGradGradGradGrad

                          Input orientation:                          
 ---------------------------------------------------------------------
 Center     Atomic      Atomic             Coordinates (Angstroms)
 Number     Number       Type             X           Y           Z
 ---------------------------------------------------------------------
      1         29           0        1.143997   -0.083960    0.044360
      2         17           0        3.258683   -0.083960    0.044360
 ---------------------------------------------------------------------
 Symmetry turned off by external request.
 Stoichiometry    ClCu
 Framework group  C*V[C*(ClCu)]
 Deg. of freedom     1
 Full point group                 C*V     NOp   4
 Rotational constants (GHZ):           0.0000000           5.0276444           5.0276444
 Standard basis: def2TZVP (5D, 7F)
    82 basis functions,   171 primitive gaussians,    94 cartesian basis functions
    23 alpha electrons       23 beta electrons
       nuclear repulsion energy       123.3678483513 Hartrees.
 NAtoms=    2 NActive=    2 NUniq=    2 SFac= 1.00D+00 NAtFMM=   60 NAOKFM=F Big=F
 Integral buffers will be    131072 words long.
 Raffenetti 2 integral format.
 Two-electron integral symmetry is turned off.
 One-electron integrals computed using PRISM.
   1 Symmetry operations used in ECPInt.
 ECPInt:  NShTT=     406 NPrTT=    2111 LenC2=     398 LenP2D=    1728.
 LDataN:  DoStor=T MaxTD1= 6 Len=  172
 NBasis=    82 RedAO= T EigKep=  1.23D-02  NBF=    82
 NBsUse=    82 1.00D-06 EigRej= -1.00D+00 NBFU=    82
 Initial guess from the checkpoint file:  "/rc_scratch/vijo5019/Gau-125159.chk"
 B after Tr=     0.039130    0.000000    0.000000
         Rot=    1.000000    0.000000    0.000000    0.000000 Ang=   0.00 deg.
 Initial guess <Sx>= 0.0000 <Sy>= 0.0000 <Sz>= 0.0000 <S**2>= 0.0000 S= 0.0000
 ExpMin= 3.88D-02 ExpMax= 3.78D+05 ExpMxC= 3.65D+03 IAcc=3 IRadAn=         5 AccDes= 0.00D+00
 Harris functional with IExCor=  402 and IRadAn=       5 diagonalized for initial guess.
 HarFok:  IExCor=  402 AccDes= 0.00D+00 IRadAn=         5 IDoV= 1 UseB2=F ITyADJ=14
 ICtDFT=  3500011 ScaDFX=  1.000000  1.000000  1.000000  1.000000
 FoFCou: FMM=F IPFlag=           0 FMFlag=      100000 FMFlg1=           0
         NFxFlg=           0 DoJE=T BraDBF=F KetDBF=T FulRan=T
         wScrn=  0.000000 ICntrl=       500 IOpCl=  0 I1Cent=   200000004 NGrid=           0
         NMat0=    1 NMatS0=      1 NMatT0=    0 NMatD0=    1 NMtDS0=    0 NMtDT0=    0
 Symmetry not used in FoFCou.
 Keep R1 and R2 ints in memory in canonical form, NReq=33590912.
 Gradient too large for Newton-Raphson -- use scaled steepest descent instead.
     Minimum is close to point  3 DX=  3.50D-02 DF= -2.36D-06 DXR=  5.51D-02 DFR=  3.06D-03 which will be used.
 Gradient too large for Newton-Raphson -- use scaled steepest descent instead.
     Accept linear search using points  1 and  2.
 Gradient too large for Newton-Raphson -- use scaled steepest descent instead.
 Gradient too large for Newton-Raphson -- use scaled steepest descent instead.
     Accept linear search using points  1 and  2.
 Gradient too large for Newton-Raphson -- use scaled steepest descent instead.
 Gradient too large for Newton-Raphson -- use scaled steepest descent instead.
     Accept linear search using points  1 and  2.
 LinEq1:  Iter=  0 NonCon=     1 RMS=3.03D-04 Max=6.68D-03 NDo=     1
 AX will form     1 AO Fock derivatives at one time.
 LinEq1:  Iter=  1 NonCon=     1 RMS=1.40D-04 Max=3.59D-03 NDo=     1
 LinEq1:  Iter=  2 NonCon=     1 RMS=9.34D-05 Max=1.09D-03 NDo=     1
 LinEq1:  Iter=  3 NonCon=     1 RMS=1.41D-04 Max=3.49D-03 NDo=     1
 LinEq1:  Iter=  4 NonCon=     1 RMS=4.92D-05 Max=6.90D-04 NDo=     1
 LinEq1:  Iter=  5 NonCon=     1 RMS=1.11D-05 Max=1.37D-04 NDo=     1
 LinEq1:  Iter=  6 NonCon=     1 RMS=1.57D-06 Max=1.84D-05 NDo=     1
 LinEq1:  Iter=  7 NonCon=     1 RMS=2.04D-07 Max=2.64D-06 NDo=     1
 LinEq1:  Iter=  8 NonCon=     1 RMS=3.42D-08 Max=3.85D-07 NDo=     1
 LinEq1:  Iter=  9 NonCon=     1 RMS=6.42D-09 Max=6.73D-08 NDo=     1
 LinEq1:  Iter= 10 NonCon=     0 RMS=5.08D-10 Max=4.58D-09 NDo=     1
 Linear equations converged to 5.210D-09 5.210D-08 after    10 iterations.
     Accept linear search using points  1 and  2.
     Minimum is close to point  2 DX= -5.58D-04 DF= -3.09D-11 DXR=  5.58D-04 DFR=  3.13D-07 which will be used.
 LinEq1:  Iter=  0 NonCon=     1 RMS=4.57D-06 Max=8.59D-05 NDo=     1
 LinEq1:  Iter=  1 NonCon=     1 RMS=3.70D-06 Max=8.52D-05 NDo=     1
 LinEq1:  Iter=  2 NonCon=     1 RMS=2.64D-06 Max=6.17D-05 NDo=     1
 LinEq1:  Iter=  3 NonCon=     1 RMS=7.74D-07 Max=1.06D-05 NDo=     1
 LinEq1:  Iter=  4 NonCon=     1 RMS=3.87D-07 Max=5.29D-06 NDo=     1
 LinEq1:  Iter=  5 NonCon=     1 RMS=1.24D-07 Max=2.22D-06 NDo=     1
 LinEq1:  Iter=  6 NonCon=     1 RMS=1.76D-08 Max=1.88D-07 NDo=     1
 LinEq1:  Iter=  7 NonCon=     1 RMS=3.99D-09 Max=5.37D-08 NDo=     1
 LinEq1:  Iter=  8 NonCon=     0 RMS=4.96D-10 Max=7.00D-09 NDo=     1
 Linear equations converged to 2.175D-09 2.175D-08 after     8 iterations.
     Minimum is close to point  2 DX=  5.70D-05 DF=  0.00D+00 DXR=  5.70D-05 DFR=  0.00D+00 which will be used.
 SCF Done:  E(UB3LYP) =  -2100.83490934     a.u. after    9 cycles
            Convg  =    0.7580D-08                    38 Fock formations.
              S**2 =  0.0000                  -V/T =  2.0015
 <Sx>= 0.0000 <Sy>= 0.0000 <Sz>= 0.0000 <S**2>= 0.0000 S= 0.0000
 <L.S>=  0.00000000000    
 Annihilation of the first spin contaminant:
 S**2 before annihilation     0.0000,   after    -0.0000
   1 Symmetry operations used in ECPInt.
 ECPInt:  NShTT=     406 NPrTT=    2111 LenC2=     398 LenP2D=    1728.
 LDataN:  DoStor=T MaxTD1= 7 Len=  274
 Calling FoFJK, ICntrl=      2127 FMM=F ISym2X=0 I1Cent= 0 IOpClX= 1 NMat=1 NMatS=1 NMatT=0.
 -------------------------------------------------------------------
 Center     Atomic                   Forces (Hartrees/Bohr)
 Number     Number              X              Y              Z
 -------------------------------------------------------------------
      1       29           0.005100913    0.000000000    0.000000000
      2       17          -0.005100913   -0.000000000   -0.000000000
 -------------------------------------------------------------------
 Cartesian Forces:  Max     0.005100913 RMS     0.002945013

 GradGradGradGradGradGradGradGradGradGradGradGradGradGradGradGradGradGrad
 Berny optimization.
 Using GEDIIS/GDIIS optimizer.
 Internal  Forces:  Max     0.005100913 RMS     0.005100913
 Search for a local minimum.
 Step number   2 out of a maximum of  100
 All quantities printed in internal units (Hartrees-Bohrs-Radians)
 Mixed Optimization -- RFO/linear search
 Update second derivatives using D2CorX and points    1    2
 DE= -5.63D-03 DEPred=-6.41D-03 R= 8.78D-01
 TightC=F SS=  1.41D+00  RLast= 3.00D-01 DXNew= 5.0454D-01 9.0000D-01
 Trust test= 8.78D-01 RLast= 3.00D-01 DXMaxT set to 5.05D-01
 The second derivative matrix:
                          R1
           R1           0.08069
 ITU=  1  0
 Use linear search instead of GDIIS.
     Eigenvalues ---    0.08069
 RFO step:  Lambda= 0.00000000D+00 EMin= 8.06856712D-02
 Quartic linear search produced a step of  0.14260.
 Iteration  1 RMS(Cart)=  0.03024928 RMS(Int)=  0.00000000
 Iteration  2 RMS(Cart)=  0.00000000 RMS(Int)=  0.00000000
 Variable       Old X    -DE/DX   Delta X   Delta X   Delta X     New X
                                 (Linear)    (Quad)   (Total)
    R1        3.99618  -0.00510  -0.04278  -0.00000  -0.04278   3.95340
         Item               Value     Threshold  Converged?
 Maximum Force            0.005101     0.000450     NO 
 RMS     Force            0.005101     0.000300     NO 
 Maximum Displacement     0.021389     0.001800     NO 
 RMS     Displacement     0.030249     0.001200     NO 
 Predicted change in Energy=-1.443827D-04
 GradGradGradGradGradGradGradGradGradGradGradGradGradGradGradGradGradGrad

                          Input orientation:                          
 ---------------------------------------------------------------------
 Center     Atomic      Atomic             Coordinates (Angstroms)
 Number     Number       Type             X           Y           Z
 ---------------------------------------------------------------------
      1         29           0        1.155315   -0.083960    0.044360
      2         17           0        3.247365   -0.083960    0.044360
 ---------------------------------------------------------------------
 Symmetry turned off by external request.
 Stoichiometry    ClCu
 Framework group  C*V[C*(ClCu)]
 Deg. of freedom     1
 Full point group                 C*V     NOp   4
 Rotational constants (GHZ):           0.0000000           5.1370393           5.1370393
 Standard basis: def2TZVP (5D, 7F)
    82 basis functions,   171 primitive gaussians,    94 cartesian basis functions
    23 alpha electrons       23 beta electrons
       nuclear repulsion energy       124.7027870761 Hartrees.
 NAtoms=    2 NActive=    2 NUniq=    2 SFac= 1.00D+00 NAtFMM=   60 NAOKFM=F Big=F
 Integral buffers will be    131072 words long.
 Raffenetti 2 integral format.
 Two-electron integral symmetry is turned off.
 One-electron integrals computed using PRISM.
   1 Symmetry operations used in ECPInt.
 ECPInt:  NShTT=     406 NPrTT=    2111 LenC2=     398 LenP2D=    1730.
 LDataN:  DoStor=T MaxTD1= 6 Len=  172
 NBasis=    82 RedAO= T EigKep=  1.16D-02  NBF=    82
 NBsUse=    82 1.00D-06 EigRej= -1.00D+00 NBFU=    82
 Initial guess from the checkpoint file:  "/rc_scratch/vijo5019/Gau-125159.chk"
 B after Tr=     0.005580    0.000000    0.000000
         Rot=    1.000000    0.000000    0.000000    0.000000 Ang=   0.00 deg.
 Initial guess <Sx>= 0.0000 <Sy>= 0.0000 <Sz>= 0.0000 <S**2>=-0.0000 S=-0.0000
 ExpMin= 3.88D-02 ExpMax= 3.78D+05 ExpMxC= 3.65D+03 IAcc=3 IRadAn=         5 AccDes= 0.00D+00
 Harris functional with IExCor=  402 and IRadAn=       5 diagonalized for initial guess.
 HarFok:  IExCor=  402 AccDes= 0.00D+00 IRadAn=         5 IDoV= 1 UseB2=F ITyADJ=14
 ICtDFT=  3500011 ScaDFX=  1.000000  1.000000  1.000000  1.000000
 FoFCou: FMM=F IPFlag=           0 FMFlag=      100000 FMFlg1=           0
         NFxFlg=           0 DoJE=T BraDBF=F KetDBF=T FulRan=T
         wScrn=  0.000000 ICntrl=       500 IOpCl=  0 I1Cent=   200000004 NGrid=           0
         NMat0=    1 NMatS0=      1 NMatT0=    0 NMatD0=    1 NMtDS0=    0 NMtDT0=    0
 Symmetry not used in FoFCou.
 Keep R1 and R2 ints in memory in canonical form, NReq=33590912.
 Gradient too large for Newton-Raphson -- use scaled steepest descent instead.
 LinEq1:  Iter=  0 NonCon=     1 RMS=1.06D-04 Max=1.13D-03 NDo=     1
 AX will form     1 AO Fock derivatives at one time.
 LinEq1:  Iter=  1 NonCon=     1 RMS=2.14D-04 Max=4.27D-03 NDo=     1
 LinEq1:  Iter=  2 NonCon=     1 RMS=6.51D-05 Max=1.56D-03 NDo=     1
 LinEq1:  Iter=  3 NonCon=     1 RMS=2.96D-05 Max=4.33D-04 NDo=     1
 LinEq1:  Iter=  4 NonCon=     1 RMS=9.32D-06 Max=9.77D-05 NDo=     1
 LinEq1:  Iter=  5 NonCon=     1 RMS=6.28D-06 Max=1.02D-04 NDo=     1
 LinEq1:  Iter=  6 NonCon=     1 RMS=1.32D-06 Max=2.10D-05 NDo=     1
 LinEq1:  Iter=  7 NonCon=     1 RMS=1.63D-07 Max=1.78D-06 NDo=     1
 LinEq1:  Iter=  8 NonCon=     1 RMS=2.42D-08 Max=2.60D-07 NDo=     1
 LinEq1:  Iter=  9 NonCon=     0 RMS=3.77D-09 Max=3.50D-08 NDo=     1
 Linear equations converged to 5.210D-09 5.210D-08 after     9 iterations.
     Minimum is close to point  2 DX=  2.35D-03 DF= -1.22D-10 DXR=  2.34D-03 DFR=  5.45D-06 which will be used.
 LinEq1:  Iter=  0 NonCon=     1 RMS=4.93D-07 Max=7.09D-06 NDo=     1
 LinEq1:  Iter=  1 NonCon=     1 RMS=1.19D-06 Max=3.38D-05 NDo=     1
 LinEq1:  Iter=  2 NonCon=     1 RMS=1.67D-07 Max=3.36D-06 NDo=     1
 LinEq1:  Iter=  3 NonCon=     1 RMS=8.90D-08 Max=1.02D-06 NDo=     1
 LinEq1:  Iter=  4 NonCon=     1 RMS=2.11D-08 Max=3.80D-07 NDo=     1
 LinEq1:  Iter=  5 NonCon=     1 RMS=2.24D-09 Max=2.92D-08 NDo=     1
 LinEq1:  Iter=  6 NonCon=     1 RMS=7.33D-10 Max=9.04D-09 NDo=     1
 LinEq1:  Iter=  7 NonCon=     1 RMS=2.95D-10 Max=4.00D-09 NDo=     1
 LinEq1:  Iter=  8 NonCon=     0 RMS=5.33D-11 Max=5.87D-10 NDo=     1
 Linear equations converged to 2.512D-10 2.512D-09 after     8 iterations.
 SCF Done:  E(UB3LYP) =  -2100.83501822     a.u. after    4 cycles
            Convg  =    0.1022D-08                    25 Fock formations.
              S**2 = -0.0000                  -V/T =  2.0015
 <Sx>= 0.0000 <Sy>= 0.0000 <Sz>= 0.0000 <S**2>=-0.0000 S=-0.0000
 <L.S>=  0.00000000000    
 Annihilation of the first spin contaminant:
 S**2 before annihilation    -0.0000,   after    -0.0000
   1 Symmetry operations used in ECPInt.
 ECPInt:  NShTT=     406 NPrTT=    2111 LenC2=     398 LenP2D=    1730.
 LDataN:  DoStor=T MaxTD1= 7 Len=  274
 Calling FoFJK, ICntrl=      2127 FMM=F ISym2X=0 I1Cent= 0 IOpClX= 1 NMat=1 NMatS=1 NMatT=0.
 -------------------------------------------------------------------
 Center     Atomic                   Forces (Hartrees/Bohr)
 Number     Number              X              Y              Z
 -------------------------------------------------------------------
      1       29          -0.000099374    0.000000000    0.000000000
      2       17           0.000099374   -0.000000000   -0.000000000
 -------------------------------------------------------------------
 Cartesian Forces:  Max     0.000099374 RMS     0.000057374

 GradGradGradGradGradGradGradGradGradGradGradGradGradGradGradGradGradGrad
 Berny optimization.
 Using GEDIIS/GDIIS optimizer.
 Internal  Forces:  Max     0.000099374 RMS     0.000099374
 Search for a local minimum.
 Step number   3 out of a maximum of  100
 All quantities printed in internal units (Hartrees-Bohrs-Radians)
 Mixed Optimization -- En-DIIS/RFO-DIIS
 Update second derivatives using D2CorX and points    2    3
 DE= -1.09D-04 DEPred=-1.44D-04 R= 7.54D-01
 TightC=F SS=  1.41D+00  RLast= 4.28D-02 DXNew= 8.4853D-01 1.2834D-01
 Trust test= 7.54D-01 RLast= 4.28D-02 DXMaxT set to 5.05D-01
 The second derivative matrix:
                          R1
           R1           0.12156
 ITU=  1  1
 Use linear search instead of GDIIS.
     Eigenvalues ---    0.12156
 RFO step:  Lambda= 0.00000000D+00 EMin= 1.21561814D-01
 Quartic linear search produced a step of -0.01819.
 Iteration  1 RMS(Cart)=  0.00055013 RMS(Int)=  0.00000000
 Iteration  2 RMS(Cart)=  0.00000000 RMS(Int)=  0.00000000
 Variable       Old X    -DE/DX   Delta X   Delta X   Delta X     New X
                                 (Linear)    (Quad)   (Total)
    R1        3.95340   0.00010   0.00078   0.00000   0.00078   3.95418
         Item               Value     Threshold  Converged?
 Maximum Force            0.000099     0.000450     YES
 RMS     Force            0.000099     0.000300     YES
 Maximum Displacement     0.000389     0.001800     YES
 RMS     Displacement     0.000550     0.001200     YES
 Predicted change in Energy=-4.052322D-08
 Optimization completed.
    -- Stationary point found.
                           ----------------------------
                           !   Optimized Parameters   !
                           ! (Angstroms and Degrees)  !
 --------------------------                            --------------------------
 ! Name  Definition              Value          Derivative Info.                !
 --------------------------------------------------------------------------------
 ! R1    R(1,2)                  2.092          -DE/DX =    0.0001              !
 --------------------------------------------------------------------------------
 GradGradGradGradGradGradGradGradGradGradGradGradGradGradGradGradGradGrad

                          Input orientation:                          
 ---------------------------------------------------------------------
 Center     Atomic      Atomic             Coordinates (Angstroms)
 Number     Number       Type             X           Y           Z
 ---------------------------------------------------------------------
      1         29           0        1.155315   -0.083960    0.044360
      2         17           0        3.247365   -0.083960    0.044360
 ---------------------------------------------------------------------
 Symmetry turned off by external request.
 Stoichiometry    ClCu
 Framework group  C*V[C*(ClCu)]
 Deg. of freedom     1
 Full point group                 C*V     NOp   4
 Rotational constants (GHZ):           0.0000000           5.1370393           5.1370393

 **********************************************************************

            Population analysis using the SCF density.

 **********************************************************************

 Alpha  occ. eigenvalues -- -323.03425-101.46853 -38.83020 -34.03479 -34.03466
 Alpha  occ. eigenvalues --  -34.03466  -9.40024  -7.15926  -7.15449  -7.15449
 Alpha  occ. eigenvalues --   -4.32196  -2.81980  -2.81407  -2.81407  -0.75636
 Alpha  occ. eigenvalues --   -0.36017  -0.33012  -0.33012  -0.30743  -0.30743
 Alpha  occ. eigenvalues --   -0.27713  -0.26469  -0.26469
 Alpha virt. eigenvalues --   -0.12125   0.06089   0.06089   0.08337   0.12697
 Alpha virt. eigenvalues --    0.16476   0.16476   0.19670   0.19670   0.25426
 Alpha virt. eigenvalues --    0.38926   0.38926   0.42534   0.49267   0.49267
 Alpha virt. eigenvalues --    0.51011   0.56280   0.56280   0.85945   0.85945
 Alpha virt. eigenvalues --    0.89592   0.92178   0.92178   1.18612   1.78154
 Alpha virt. eigenvalues --    1.78154   1.85218   1.85218   1.85857   1.94549
 Alpha virt. eigenvalues --    2.05878   2.05878   2.12761   2.12761   2.13350
 Alpha virt. eigenvalues --    2.13350   2.22116   2.22116   2.27312   2.27312
 Alpha virt. eigenvalues --    2.28030   2.65018   3.02935   3.62700   3.62702
 Alpha virt. eigenvalues --    3.65957   3.65957   3.77620   5.74619   5.74619
 Alpha virt. eigenvalues --    5.75036   5.75036   5.75526   5.75526   5.83204
 Alpha virt. eigenvalues --   10.72332  10.72332  10.85993  24.57217
  Beta  occ. eigenvalues -- -323.03425-101.46853 -38.83020 -34.03479 -34.03466
  Beta  occ. eigenvalues --  -34.03466  -9.40024  -7.15926  -7.15449  -7.15449
  Beta  occ. eigenvalues --   -4.32196  -2.81980  -2.81407  -2.81407  -0.75636
  Beta  occ. eigenvalues --   -0.36017  -0.33012  -0.33012  -0.30743  -0.30743
  Beta  occ. eigenvalues --   -0.27713  -0.26469  -0.26469
  Beta virt. eigenvalues --   -0.12125   0.06089   0.06089   0.08337   0.12697
  Beta virt. eigenvalues --    0.16476   0.16476   0.19670   0.19670   0.25426
  Beta virt. eigenvalues --    0.38926   0.38926   0.42534   0.49267   0.49267
  Beta virt. eigenvalues --    0.51011   0.56280   0.56280   0.85945   0.85945
  Beta virt. eigenvalues --    0.89592   0.92178   0.92178   1.18612   1.78154
  Beta virt. eigenvalues --    1.78154   1.85218   1.85218   1.85857   1.94549
  Beta virt. eigenvalues --    2.05878   2.05878   2.12761   2.12761   2.13350
  Beta virt. eigenvalues --    2.13350   2.22116   2.22116   2.27312   2.27312
  Beta virt. eigenvalues --    2.28030   2.65018   3.02935   3.62700   3.62702
  Beta virt. eigenvalues --    3.65957   3.65957   3.77620   5.74619   5.74619
  Beta virt. eigenvalues --    5.75036   5.75036   5.75526   5.75526   5.83204
  Beta virt. eigenvalues --   10.72332  10.72332  10.85993  24.57217
          Condensed to atoms (all electrons):
               1          2
     1  Cu  28.275335   0.283654
     2  Cl   0.283654  17.157357
          Atomic-Atomic Spin Densities.
               1          2
     1  Cu   0.000000   0.000000
     2  Cl   0.000000  -0.000000
 Mulliken charges and spin densities:
               1          2
     1  Cu   0.441011   0.000000
     2  Cl  -0.441011  -0.000000
 Sum of Mulliken charges =  -0.00000   0.00000
 Mulliken charges and spin densities with hydrogens summed into heavy atoms:
               1          2
     1  Cu   0.441011   0.000000
     2  Cl  -0.441011  -0.000000
 Electronic spatial extent (au):  <R**2>=            849.6494
 Charge=             -0.0000 electrons
 Dipole moment (field-independent basis, Debye):
    X=             -5.0098    Y=              0.0000    Z=             -0.0000  Tot=              5.0098
 Quadrupole moment (field-independent basis, Debye-Ang):
   XX=            -42.6551   YY=            -25.5806   ZZ=            -25.5806
   XY=              0.4206   XZ=             -0.2222   YZ=              0.0000
 Traceless Quadrupole moment (field-independent basis, Debye-Ang):
   XX=            -11.3830   YY=              5.6915   ZZ=              5.6915
   XY=              0.4206   XZ=             -0.2222   YZ=              0.0000
 Octapole moment (field-independent basis, Debye-Ang**2):
  XXX=           -224.1755  YYY=              6.4432  ZZZ=             -3.4043  XYY=            -59.2303
  XXY=              3.5813  XXZ=             -1.8922  XZZ=            -59.2048  YZZ=              2.1477
  YYZ=             -1.1348  XYZ=              0.0187
 Hexadecapole moment (field-independent basis, Debye-Ang**3):
 XXXX=          -1110.0740 YYYY=            -29.1563 ZZZZ=            -28.3764 XXXY=             18.8218
 XXXZ=             -9.9444 YYYX=             14.9130 YYYZ=              0.2858 ZZZX=             -7.8781
 ZZZY=              0.2858 XXYY=           -171.8013 XXZZ=           -171.5845 YYZZ=             -9.5888
 XXYZ=              0.1589 YYXZ=             -2.6275 ZZXY=              4.9708
 N-N= 1.247027870761D+02 E-N=-5.269972618959D+03  KE= 2.097741273916D+03
                          Isotropic Fermi Contact Couplings
        Atom                 a.u.       MegaHertz       Gauss      10(-4) cm-1
     1  Cu(63)             0.00000       0.00000       0.00000       0.00000
     2  Cl(35)             0.00000       0.00000       0.00000       0.00000
 --------------------------------------------------------
       Center         ----  Spin Dipole Couplings  ----
                      3XX-RR        3YY-RR        3ZZ-RR
 --------------------------------------------------------
     1   Atom        0.000000      0.000000      0.000000
     2   Atom        0.000000      0.000000      0.000000
 --------------------------------------------------------
                        XY            XZ            YZ
 --------------------------------------------------------
     1   Atom        0.000000      0.000000      0.000000
     2   Atom        0.000000      0.000000      0.000000
 --------------------------------------------------------


 ---------------------------------------------------------------------------------
              Anisotropic Spin Dipole Couplings in Principal Axis System
 ---------------------------------------------------------------------------------

       Atom             a.u.   MegaHertz   Gauss  10(-4) cm-1        Axes

              Baa     0.0000     0.000     0.000     0.000  1.0000  0.0000  0.0000
     1 Cu(63) Bbb     0.0000     0.000     0.000     0.000 -0.0000  1.0000  0.0000
              Bcc     0.0000     0.000     0.000     0.000  0.0000  0.0000  1.0000
 
              Baa     0.0000     0.000     0.000     0.000  1.0000  0.0000  0.0000
     2 Cl(35) Bbb     0.0000     0.000     0.000     0.000 -0.0000  1.0000  0.0000
              Bcc     0.0000     0.000     0.000     0.000  0.0000  0.0000  1.0000
 

 ---------------------------------------------------------------------------------

 1\1\GINC-BNODE0302\FOpt\UB3LYP\def2TZVP\Cl1Cu1\VIJO5019\08-Jun-2020\0\
 \# opt=(calcfc,maxcycles=200) freq ub3lyp/Def2TZVP nosymm scf=(qc,maxc
 ycle=3000) geom=connectivity\\Autogenerated with dbale for SMILES [Cu]
 Cl_ub3lyp_Def2TZVP\\0,1\Cu,1.1553154038,-0.08396,0.04436\Cl,3.24736459
 62,-0.08396,0.04436\\Version=ES64L-G16RevA.03\HF=-2100.8350182\S2=0.\S
 2-1=0.\S2A=0.\RMSD=1.961e-11\RMSF=5.737e-05\Dipole=-1.9710153,0.,0.\Qu
 adrupole=-8.4629974,4.2314987,4.2314987,0.3127241,-0.1652268,0.\PG=C*V
  [C*(Cl1Cu1)]\\@


 THE MEEK SHALL INHERIT THE EARTH.
 (THE REST OF US WILL ESCAPE TO THE STARS)
 Job cpu time:       0 days  0 hours  6 minutes  8.9 seconds.
 Elapsed time:       0 days  0 hours  0 minutes 18.1 seconds.
 File lengths (MBytes):  RWF=     22 Int=      0 D2E=      0 Chk=      3 Scr=      2
 Normal termination of Gaussian 16 at Mon Jun  8 12:10:47 2020.
 Link1:  Proceeding to internal job step number  2.
 --------------------------------------------------------------------
 #N Geom=AllCheck Guess=TCheck SCRF=Check GenChk UB3LYP/def2TZVP Freq
 --------------------------------------------------------------------
 1/6=200,10=4,29=7,30=1,38=1,40=1/1,3;
 2/12=2,15=1,40=1/2;
 3/5=44,7=101,11=2,14=-4,25=1,30=1,70=2,71=2,74=-5,116=2,140=1/1,2,3;
 4/5=101/1;
 5/5=2,7=3000,8=3,38=6,98=1/8;
 8/6=4,10=90,11=11/1;
 11/6=1,8=1,9=11,15=111,16=1,31=1/1,2,10;
 10/6=1,31=1/2;
 6/7=2,8=2,9=2,10=2,28=1/1;
 7/8=1,10=1,25=1,30=1/1,2,3,16;
 1/6=200,10=4,30=1/3;
 99//99;
 Structure from the checkpoint file:  "/rc_scratch/vijo5019/Gau-125159.chk"
 ----------------------------------------------------------
 Autogenerated with dbale for SMILES [Cu]Cl_ub3lyp_Def2TZVP
 ----------------------------------------------------------
 Charge =  0 Multiplicity = 1
 Redundant internal coordinates found in file.  (old form).
 Cu,0,1.1553154038,-0.08396,0.04436
 Cl,0,3.2473645962,-0.08396,0.04436
 Recover connectivity data from disk.

 GradGradGradGradGradGradGradGradGradGradGradGradGradGradGradGradGradGrad
 Berny optimization.
 Initialization pass.
                           ----------------------------
                           !    Initial Parameters    !
                           ! (Angstroms and Degrees)  !
 --------------------------                            --------------------------
 ! Name  Definition              Value          Derivative Info.                !
 --------------------------------------------------------------------------------
 ! R1    R(1,2)                  2.092          calculate D2E/DX2 analytically  !
 --------------------------------------------------------------------------------
 Trust Radius=3.00D-01 FncErr=1.00D-07 GrdErr=1.00D-07 EigMax=2.50D+02 EigMin=1.00D-04
 Number of steps in this run=      2 maximum allowed number of steps=      2.
 GradGradGradGradGradGradGradGradGradGradGradGradGradGradGradGradGradGrad

                          Input orientation:                          
 ---------------------------------------------------------------------
 Center     Atomic      Atomic             Coordinates (Angstroms)
 Number     Number       Type             X           Y           Z
 ---------------------------------------------------------------------
      1         29           0        1.155315   -0.083960    0.044360
      2         17           0        3.247365   -0.083960    0.044360
 ---------------------------------------------------------------------
 Symmetry turned off by external request.
 Stoichiometry    ClCu
 Framework group  C*V[C*(ClCu)]
 Deg. of freedom     1
 Full point group                 C*V     NOp   4
 Rotational constants (GHZ):           0.0000000           5.1370393           5.1370393
 Standard basis: def2TZVP (5D, 7F)
    82 basis functions,   171 primitive gaussians,    94 cartesian basis functions
    23 alpha electrons       23 beta electrons
       nuclear repulsion energy       124.7027870761 Hartrees.
 NAtoms=    2 NActive=    2 NUniq=    2 SFac= 1.00D+00 NAtFMM=   60 NAOKFM=F Big=F
 Integral buffers will be    131072 words long.
 Raffenetti 2 integral format.
 Two-electron integral symmetry is turned off.
 One-electron integrals computed using PRISM.
   1 Symmetry operations used in ECPInt.
 ECPInt:  NShTT=     406 NPrTT=    2111 LenC2=     398 LenP2D=    1730.
 LDataN:  DoStor=T MaxTD1= 6 Len=  172
 NBasis=    82 RedAO= T EigKep=  1.16D-02  NBF=    82
 NBsUse=    82 1.00D-06 EigRej= -1.00D+00 NBFU=    82
 Initial guess from the checkpoint file:  "/rc_scratch/vijo5019/Gau-125159.chk"
 B after Tr=     0.000000    0.000000    0.000000
         Rot=    1.000000    0.000000    0.000000    0.000000 Ang=   0.00 deg.
 Initial guess <Sx>= 0.0000 <Sy>= 0.0000 <Sz>= 0.0000 <S**2>= 0.0000 S= 0.0000
 Keep R1 and R2 ints in memory in canonical form, NReq=33590912.
 SCF Done:  E(UB3LYP) =  -2100.83501822     a.u. after    1 cycles
            Convg  =    0.1022D-08                     1 Fock formations.
              S**2 = -0.0000                  -V/T =  2.0015
 <Sx>= 0.0000 <Sy>= 0.0000 <Sz>= 0.0000 <S**2>=-0.0000 S=-0.0000
 <L.S>=  0.00000000000    
 Annihilation of the first spin contaminant:
 S**2 before annihilation     0.0000,   after     0.0000
 DoSCS=F DFT=T ScalE2(SS,OS)=  1.000000  1.000000
 Range of M.O.s used for correlation:     1    82
 NBasis=    82 NAE=    23 NBE=    23 NFC=     0 NFV=     0
 NROrb=     82 NOA=    23 NOB=    23 NVA=    59 NVB=    59
   1 Symmetry operations used in ECPInt.
 ECPInt:  NShTT=     406 NPrTT=    2111 LenC2=     398 LenP2D=    1730.
 LDataN:  DoStor=T MaxTD1= 7 Len=  274
 Symmetrizing basis deriv contribution to polar:
 IMax=3 JMax=2 DiffMx= 0.00D+00
 G2DrvN: will do     3 centers at a time, making    1 passes.
 Calling FoFCou, ICntrl=  3107 FMM=F I1Cent=   0 AccDes= 0.00D+00.
 End of G2Drv F.D. properties file   721 does not exist.
 End of G2Drv F.D. properties file   722 does not exist.
 End of G2Drv F.D. properties file   788 does not exist.
          IDoAtm=11
          Differentiating once with respect to electric field.
                with respect to dipole field.
          Differentiating once with respect to nuclear coordinates.
 Keep R1 and R2 ints in memory in canonical form, NReq=33508546.
          There are     9 degrees of freedom in the 1st order CPHF.  IDoFFX=6 NUNeed=     3.
      6 vectors produced by pass  0 Test12= 3.02D-14 1.11D-08 XBig12= 1.30D+02 4.95D+00.
 AX will form     6 AO Fock derivatives at one time.
      6 vectors produced by pass  1 Test12= 3.02D-14 1.11D-08 XBig12= 2.24D+01 1.14D+00.
      6 vectors produced by pass  2 Test12= 3.02D-14 1.11D-08 XBig12= 7.86D-01 2.10D-01.
      6 vectors produced by pass  3 Test12= 3.02D-14 1.11D-08 XBig12= 1.63D-02 3.57D-02.
      6 vectors produced by pass  4 Test12= 3.02D-14 1.11D-08 XBig12= 3.57D-04 4.74D-03.
      6 vectors produced by pass  5 Test12= 3.02D-14 1.11D-08 XBig12= 7.26D-06 5.57D-04.
      6 vectors produced by pass  6 Test12= 3.02D-14 1.11D-08 XBig12= 1.06D-07 7.94D-05.
      4 vectors produced by pass  7 Test12= 3.02D-14 1.11D-08 XBig12= 4.40D-10 5.25D-06.
      4 vectors produced by pass  8 Test12= 3.02D-14 1.11D-08 XBig12= 2.87D-12 3.46D-07.
      1 vectors produced by pass  9 Test12= 3.02D-14 1.11D-08 XBig12= 6.41D-14 3.69D-08.
 InvSVY:  IOpt=1 It=  1 EMax= 3.33D-16
 Solved reduced A of dimension    51 with     6 vectors.
 Isotropic polarizability for W=    0.000000       30.53 Bohr**3.
 End of Minotr F.D. properties file   721 does not exist.
 End of Minotr F.D. properties file   722 does not exist.
 End of Minotr F.D. properties file   788 does not exist.

 **********************************************************************

            Population analysis using the SCF density.

 **********************************************************************

 Alpha  occ. eigenvalues -- -323.03425-101.46853 -38.83020 -34.03479 -34.03466
 Alpha  occ. eigenvalues --  -34.03466  -9.40024  -7.15926  -7.15449  -7.15449
 Alpha  occ. eigenvalues --   -4.32196  -2.81980  -2.81407  -2.81407  -0.75636
 Alpha  occ. eigenvalues --   -0.36017  -0.33012  -0.33012  -0.30743  -0.30743
 Alpha  occ. eigenvalues --   -0.27713  -0.26469  -0.26469
 Alpha virt. eigenvalues --   -0.12125   0.06089   0.06089   0.08337   0.12697
 Alpha virt. eigenvalues --    0.16476   0.16476   0.19670   0.19670   0.25426
 Alpha virt. eigenvalues --    0.38926   0.38926   0.42534   0.49267   0.49267
 Alpha virt. eigenvalues --    0.51011   0.56280   0.56280   0.85945   0.85945
 Alpha virt. eigenvalues --    0.89592   0.92178   0.92178   1.18612   1.78154
 Alpha virt. eigenvalues --    1.78154   1.85218   1.85218   1.85857   1.94549
 Alpha virt. eigenvalues --    2.05878   2.05878   2.12761   2.12761   2.13350
 Alpha virt. eigenvalues --    2.13350   2.22116   2.22116   2.27312   2.27312
 Alpha virt. eigenvalues --    2.28030   2.65018   3.02935   3.62700   3.62702
 Alpha virt. eigenvalues --    3.65957   3.65957   3.77620   5.74619   5.74619
 Alpha virt. eigenvalues --    5.75036   5.75036   5.75526   5.75526   5.83204
 Alpha virt. eigenvalues --   10.72332  10.72332  10.85993  24.57217
  Beta  occ. eigenvalues -- -323.03425-101.46853 -38.83020 -34.03479 -34.03466
  Beta  occ. eigenvalues --  -34.03466  -9.40024  -7.15926  -7.15449  -7.15449
  Beta  occ. eigenvalues --   -4.32196  -2.81980  -2.81407  -2.81407  -0.75636
  Beta  occ. eigenvalues --   -0.36017  -0.33012  -0.33012  -0.30743  -0.30743
  Beta  occ. eigenvalues --   -0.27713  -0.26469  -0.26469
  Beta virt. eigenvalues --   -0.12125   0.06089   0.06089   0.08337   0.12697
  Beta virt. eigenvalues --    0.16476   0.16476   0.19670   0.19670   0.25426
  Beta virt. eigenvalues --    0.38926   0.38926   0.42534   0.49267   0.49267
  Beta virt. eigenvalues --    0.51011   0.56280   0.56280   0.85945   0.85945
  Beta virt. eigenvalues --    0.89592   0.92178   0.92178   1.18612   1.78154
  Beta virt. eigenvalues --    1.78154   1.85218   1.85218   1.85857   1.94549
  Beta virt. eigenvalues --    2.05878   2.05878   2.12761   2.12761   2.13350
  Beta virt. eigenvalues --    2.13350   2.22116   2.22116   2.27312   2.27312
  Beta virt. eigenvalues --    2.28030   2.65018   3.02935   3.62700   3.62702
  Beta virt. eigenvalues --    3.65957   3.65957   3.77620   5.74619   5.74619
  Beta virt. eigenvalues --    5.75036   5.75036   5.75526   5.75526   5.83204
  Beta virt. eigenvalues --   10.72332  10.72332  10.85993  24.57217
          Condensed to atoms (all electrons):
               1          2
     1  Cu  28.275335   0.283654
     2  Cl   0.283654  17.157357
          Atomic-Atomic Spin Densities.
               1          2
     1  Cu  -0.000000  -0.000000
     2  Cl  -0.000000  -0.000000
 Mulliken charges and spin densities:
               1          2
     1  Cu   0.441011  -0.000000
     2  Cl  -0.441011  -0.000000
 Sum of Mulliken charges =  -0.00000  -0.00000
 Mulliken charges and spin densities with hydrogens summed into heavy atoms:
               1          2
     1  Cu   0.441011  -0.000000
     2  Cl  -0.441011  -0.000000
 APT charges:
               1
     1  Cu   0.548842
     2  Cl  -0.548842
 Sum of APT charges =  -0.00000
 APT charges with hydrogens summed into heavy atoms:
               1
     1  Cu   0.548842
     2  Cl  -0.548842
 Electronic spatial extent (au):  <R**2>=            849.6494
 Charge=             -0.0000 electrons
 Dipole moment (field-independent basis, Debye):
    X=             -5.0098    Y=             -0.0000    Z=             -0.0000  Tot=              5.0098
 Quadrupole moment (field-independent basis, Debye-Ang):
   XX=            -42.6551   YY=            -25.5806   ZZ=            -25.5806
   XY=              0.4206   XZ=             -0.2222   YZ=             -0.0000
 Traceless Quadrupole moment (field-independent basis, Debye-Ang):
   XX=            -11.3830   YY=              5.6915   ZZ=              5.6915
   XY=              0.4206   XZ=             -0.2222   YZ=             -0.0000
 Octapole moment (field-independent basis, Debye-Ang**2):
  XXX=           -224.1755  YYY=              6.4432  ZZZ=             -3.4043  XYY=            -59.2303
  XXY=              3.5813  XXZ=             -1.8922  XZZ=            -59.2048  YZZ=              2.1477
  YYZ=             -1.1348  XYZ=              0.0187
 Hexadecapole moment (field-independent basis, Debye-Ang**3):
 XXXX=          -1110.0740 YYYY=            -29.1563 ZZZZ=            -28.3764 XXXY=             18.8218
 XXXZ=             -9.9444 YYYX=             14.9130 YYYZ=              0.2858 ZZZX=             -7.8781
 ZZZY=              0.2858 XXYY=           -171.8013 XXZZ=           -171.5845 YYZZ=             -9.5888
 XXYZ=              0.1589 YYXZ=             -2.6275 ZZXY=              4.9708
 N-N= 1.247027870761D+02 E-N=-5.269972618959D+03  KE= 2.097741273916D+03
  Exact polarizability:  44.014   0.000  23.784   0.000   0.000  23.784
 Approx polarizability:  69.478  -0.000  33.712  -0.000   0.000  33.712
                          Isotropic Fermi Contact Couplings
        Atom                 a.u.       MegaHertz       Gauss      10(-4) cm-1
     1  Cu(63)             0.00000       0.00000       0.00000       0.00000
     2  Cl(35)            -0.00000      -0.00000      -0.00000      -0.00000
 --------------------------------------------------------
       Center         ----  Spin Dipole Couplings  ----
                      3XX-RR        3YY-RR        3ZZ-RR
 --------------------------------------------------------
     1   Atom        0.000000      0.000000      0.000000
     2   Atom        0.000000      0.000000      0.000000
 --------------------------------------------------------
                        XY            XZ            YZ
 --------------------------------------------------------
     1   Atom        0.000000      0.000000      0.000000
     2   Atom        0.000000      0.000000      0.000000
 --------------------------------------------------------


 ---------------------------------------------------------------------------------
              Anisotropic Spin Dipole Couplings in Principal Axis System
 ---------------------------------------------------------------------------------

       Atom             a.u.   MegaHertz   Gauss  10(-4) cm-1        Axes

              Baa     0.0000     0.000     0.000     0.000  1.0000  0.0000  0.0000
     1 Cu(63) Bbb     0.0000     0.000     0.000     0.000 -0.0000  1.0000  0.0000
              Bcc     0.0000     0.000     0.000     0.000  0.0000  0.0000  1.0000
 
              Baa     0.0000     0.000     0.000     0.000  1.0000  0.0000  0.0000
     2 Cl(35) Bbb     0.0000     0.000     0.000     0.000 -0.0000  1.0000  0.0000
              Bcc     0.0000     0.000     0.000     0.000  0.0000  0.0000  1.0000
 

 ---------------------------------------------------------------------------------

   1 Symmetry operations used in ECPInt.
 ECPInt:  NShTT=     406 NPrTT=    2111 LenC2=     398 LenP2D=    1730.
 LDataN:  DoStor=T MaxTD1= 8 Len=  415
 Calling FoFJK, ICntrl=    100127 FMM=F ISym2X=0 I1Cent= 0 IOpClX= 1 NMat=1 NMatS=1 NMatT=0.
 Full mass-weighted force constant matrix:
 Low frequencies ---   -4.5096   -4.5096    0.0062    0.0063    0.0084  387.7361
 Diagonal vibrational polarizability:
        3.2730255       0.0000000       0.0000000
 Harmonic frequencies (cm**-1), IR intensities (KM/Mole), Raman scattering
 activities (A**4/AMU), depolarization ratios for plane and unpolarized
 incident light, reduced masses (AMU), force constants (mDyne/A),
 and normal coordinates:
                      1
                      A
 Frequencies --    387.7361
 Red. masses --     41.5657
 Frc consts  --      3.6818
 IR Inten    --     18.2847
  Atom  AN      X      Y      Z
     1  29    -0.49  -0.00  -0.00
     2  17     0.87  -0.00  -0.00

 -------------------
 - Thermochemistry -
 -------------------
 Temperature   298.150 Kelvin.  Pressure   1.00000 Atm.
 Atom     1 has atomic number 29 and mass  62.92960
 Atom     2 has atomic number 17 and mass  34.96885
 Molecular mass:    97.89845 amu.
 Principal axes and moments of inertia in atomic units:
                           1         2         3
     Eigenvalues --     0.00000 351.31933 351.31933
           X            1.00000  -0.00000   0.00000
           Y            0.00000   1.00000   0.00000
           Z            0.00000   0.00000   1.00000
 This molecule is a prolate symmetric top.
 Rotational symmetry number  1.
 Rotational temperature (Kelvin)      0.24654
 Rotational constant (GHZ):           5.137039
 Zero-point vibrational energy       2319.2 (Joules/Mol)
                                    0.55430 (Kcal/Mol)
 Warning -- explicit consideration of   1 degrees of freedom as
           vibrations may cause significant error
 Vibrational temperatures:    557.87
          (Kelvin)
 
 Zero-point correction=                           0.000883 (Hartree/Particle)
 Thermal correction to Energy=                    0.003565
 Thermal correction to Enthalpy=                  0.004509
 Thermal correction to Gibbs Free Energy=        -0.022457
 Sum of electronic and zero-point Energies=          -2100.834135
 Sum of electronic and thermal Energies=             -2100.831453
 Sum of electronic and thermal Enthalpies=           -2100.830509
 Sum of electronic and thermal Free Energies=        -2100.857475
 
                     E (Thermal)             CV                S
                      KCal/Mol        Cal/Mol-Kelvin    Cal/Mol-Kelvin
 Total                    2.237              6.464             56.756
 Electronic               0.000              0.000              0.000
 Translational            0.889              2.981             39.655
 Rotational               0.592              1.987             16.092
 Vibrational              0.756              1.496              1.009
 Vibration     1          0.756              1.496              1.009
                       Q            Log10(Q)             Ln(Q)
 Total Bot       0.213536D+11         10.329471         23.784487
 Total V=0       0.544219D+11         10.735774         24.720032
 Vib (Bot)       0.463772D+00         -0.333695         -0.768362
 Vib (Bot)    1  0.463772D+00         -0.333695         -0.768362
 Vib (V=0)       0.118197D+01          0.072607          0.167183
 Vib (V=0)    1  0.118197D+01          0.072607          0.167183
 Electronic      0.100000D+01          0.000000          0.000000
 Translational   0.380730D+08          7.580618         17.455017
 Rotational      0.120934D+04          3.082549          7.097832
 -------------------------------------------------------------------
 Center     Atomic                   Forces (Hartrees/Bohr)
 Number     Number              X              Y              Z
 -------------------------------------------------------------------
      1       29          -0.000099374   -0.000000000   -0.000000000
      2       17           0.000099374    0.000000000    0.000000000
 -------------------------------------------------------------------
 Cartesian Forces:  Max     0.000099374 RMS     0.000057374
 FormGI is forming the generalized inverse of G from B-inverse, IUseBI=4.

 GradGradGradGradGradGradGradGradGradGradGradGradGradGradGradGradGradGrad
 Berny optimization.
 Internal  Forces:  Max     0.000099374 RMS     0.000099374
 Search for a local minimum.
 Step number   1 out of a maximum of    2
 All quantities printed in internal units (Hartrees-Bohrs-Radians)
 Second derivative matrix not updated -- analytic derivatives used.
 The second derivative matrix:
                          R1
           R1           0.12789
 ITU=  0
     Eigenvalues ---    0.12789
 Angle between quadratic step and forces=   0.00 degrees.
 Linear search not attempted -- first point.
 Iteration  1 RMS(Cart)=  0.00054946 RMS(Int)=  0.00000000
 Iteration  2 RMS(Cart)=  0.00000000 RMS(Int)=  0.00000000
 Variable       Old X    -DE/DX   Delta X   Delta X   Delta X     New X
                                 (Linear)    (Quad)   (Total)
    R1        3.95340   0.00010   0.00000   0.00078   0.00078   3.95418
         Item               Value     Threshold  Converged?
 Maximum Force            0.000099     0.000450     YES
 RMS     Force            0.000099     0.000300     YES
 Maximum Displacement     0.000389     0.001800     YES
 RMS     Displacement     0.000549     0.001200     YES
 Predicted change in Energy=-3.860920D-08
 Optimization completed.
    -- Stationary point found.
                           ----------------------------
                           !   Optimized Parameters   !
                           ! (Angstroms and Degrees)  !
 --------------------------                            --------------------------
 ! Name  Definition              Value          Derivative Info.                !
 --------------------------------------------------------------------------------
 ! R1    R(1,2)                  2.092          -DE/DX =    0.0001              !
 --------------------------------------------------------------------------------
 GradGradGradGradGradGradGradGradGradGradGradGradGradGradGradGradGradGrad


 ----------------------------------------------------------------------

 Electric dipole moment (input orientation):
 (Debye = 10**-18 statcoulomb cm , SI units = C m)
                  (au)            (Debye)         (10**-30 SI)
   Tot        0.197102D+01      0.500982D+01      0.167110D+02
   x         -0.197102D+01     -0.500982D+01     -0.167110D+02
   y          0.000000D+00      0.000000D+00      0.000000D+00
   z          0.000000D+00      0.000000D+00      0.000000D+00

 Dipole polarizability, Alpha (input orientation).
 (esu units = cm**3 , SI units = C**2 m**2 J**-1)
 Alpha(0;0):
               (au)            (10**-24 esu)      (10**-40 SI)
   iso        0.305275D+02      0.452372D+01      0.503331D+01
   aniso      0.202296D+02      0.299772D+01      0.333541D+01
   xx         0.440139D+02      0.652219D+01      0.725692D+01
   yx         0.000000D+00      0.000000D+00      0.000000D+00
   yy         0.237843D+02      0.352448D+01      0.392151D+01
   zx         0.000000D+00      0.000000D+00      0.000000D+00
   zy         0.000000D+00      0.000000D+00      0.000000D+00
   zz         0.237843D+02      0.352448D+01      0.392151D+01

 ----------------------------------------------------------------------

 Dipole orientation:
    29          0.08382825         -0.15866141         -2.18322970
    17          0.08382825         -0.15866141         -6.13662971

 Electric dipole moment (dipole orientation):
 (Debye = 10**-18 statcoulomb cm , SI units = C m)
                  (au)            (Debye)         (10**-30 SI)
   Tot        0.197102D+01      0.500982D+01      0.167110D+02
   x          0.000000D+00      0.000000D+00      0.000000D+00
   y          0.000000D+00      0.000000D+00      0.000000D+00
   z          0.197102D+01      0.500982D+01      0.167110D+02

 Dipole polarizability, Alpha (dipole orientation).
 (esu units = cm**3 , SI units = C**2 m**2 J**-1)
 Alpha(0;0):
               (au)            (10**-24 esu)      (10**-40 SI)
   iso        0.305275D+02      0.452372D+01      0.503331D+01
   aniso      0.202296D+02      0.299772D+01      0.333541D+01
   xx         0.237843D+02      0.352448D+01      0.392151D+01
   yx         0.000000D+00      0.000000D+00      0.000000D+00
   yy         0.237843D+02      0.352448D+01      0.392151D+01
   zx         0.000000D+00      0.000000D+00      0.000000D+00
   zy         0.000000D+00      0.000000D+00      0.000000D+00
   zz         0.440139D+02      0.652219D+01      0.725692D+01

 ----------------------------------------------------------------------
 1\1\GINC-BNODE0302\Freq\UB3LYP\def2TZVP\Cl1Cu1\VIJO5019\08-Jun-2020\0\
 \#N Geom=AllCheck Guess=TCheck SCRF=Check GenChk UB3LYP/def2TZVP Freq\
 \Autogenerated with dbale for SMILES [Cu]Cl_ub3lyp_Def2TZVP\\0,1\Cu,1.
 1553154038,-0.08396,0.04436\Cl,3.2473645962,-0.08396,0.04436\\Version=
 ES64L-G16RevA.03\HF=-2100.8350182\S2=0.\S2-1=0.\S2A=0.\RMSD=1.961e-11\
 RMSF=5.737e-05\Thermal=0.0035653\Dipole=-1.9710153,0.,0.\DipoleDeriv=0
 .6493054,0.,0.,0.,0.4986106,0.,0.,0.,0.4986106,-0.6493054,0.,0.,0.,-0.
 4986106,0.,0.,0.,-0.4986106\Polar=44.0139434,0.,23.7843418,0.,0.,23.78
 43418\Quadrupole=-8.4629974,4.2314987,4.2314987,0.3127241,-0.1652268,0
 .\PG=C*V [C*(Cl1Cu1)]\NImag=0\\0.12788643,0.,-0.00001730,0.,0.,-0.0000
 1730,-0.12788643,0.,0.,0.12788643,0.,0.00001730,0.,0.,-0.00001730,0.,0
 .,0.00001730,0.,0.,-0.00001730\\0.00009937,0.,0.,-0.00009937,0.,0.\\\@


 THE VALUE OF PHILOSOPHY IS, IN FACT, TO BE SOUGHT LARGELY IN ITS
 VERY UNCERTAINTY.  THE MAN WHO HAS NO TINCTURE OF PHILOSOPHY GOES
 THROUGH LIFE IMPRISONED IN THE PREJUDICES DERIVED FROM COMMON SENSE,
 FROM THE HABITUAL BELIEFS OF HIS AGE OR HIS NATION, AND FROM
 CONVICTIONS WHICH HAVE GROWN UP IN HIS MIND WITHOUT THE CO-OPERATION
 OR CONSENT OF HIS DELIBERATE REASON.  TO SUCH A MAN THE WORLD TENDS
 TO BE DEFINITE, FINITE, OBVIOUS; COMMON OBJECTS ROUSE NO QUESTIONS,
 AND UNFAMILIAR POSSIBILITIES ARE CONTEMPTUOUSLY REJECTED.

                             -- BERTRAND RUSSELL
 Job cpu time:       0 days  0 hours  2 minutes 50.4 seconds.
 Elapsed time:       0 days  0 hours  0 minutes  7.8 seconds.
 File lengths (MBytes):  RWF=     22 Int=      0 D2E=      0 Chk=      3 Scr=      2
 Normal termination of Gaussian 16 at Mon Jun  8 12:10:56 2020.
