 Entering Gaussian System, Link 0=g16
 Input=D4_OH_TS.gjf
 Output=D4_OH_TS.log
 Initial command:
 /curc/sw/gaussian/16/g16/l1.exe "/scratch/summit/mial5369/7447390/Gau-168172.inp" -scrdir="/scratch/summit/mial5369/7447390/"
 Default is to use a total of  24 processors:
                               24 via shared-memory
                                1 via Linda
 Entering Link 1 = /curc/sw/gaussian/16/g16/l1.exe PID=    168175.
  
 Copyright (c) 1988,1990,1992,1993,1995,1998,2003,2009,2016,
            Gaussian, Inc.  All Rights Reserved.
  
 This is part of the Gaussian(R) 16 program.  It is based on
 the Gaussian(R) 09 system (copyright 2009, Gaussian, Inc.),
 the Gaussian(R) 03 system (copyright 2003, Gaussian, Inc.),
 the Gaussian(R) 98 system (copyright 1998, Gaussian, Inc.),
 the Gaussian(R) 94 system (copyright 1995, Gaussian, Inc.),
 the Gaussian 92(TM) system (copyright 1992, Gaussian, Inc.),
 the Gaussian 90(TM) system (copyright 1990, Gaussian, Inc.),
 the Gaussian 88(TM) system (copyright 1988, Gaussian, Inc.),
 the Gaussian 86(TM) system (copyright 1986, Carnegie Mellon
 University), and the Gaussian 82(TM) system (copyright 1983,
 Carnegie Mellon University). Gaussian is a federally registered
 trademark of Gaussian, Inc.
  
 This software contains proprietary and confidential information,
 including trade secrets, belonging to Gaussian, Inc.
  
 This software is provided under written license and may be
 used, copied, transmitted, or stored only in accord with that
 written license.
  
 The following legend is applicable only to US Government
 contracts under FAR:
  
                    RESTRICTED RIGHTS LEGEND
  
 Use, reproduction and disclosure by the US Government is
 subject to restrictions as set forth in subparagraphs (a)
 and (c) of the Commercial Computer Software - Restricted
 Rights clause in FAR 52.227-19.
  
 Gaussian, Inc.
 340 Quinnipiac St., Bldg. 40, Wallingford CT 06492
  
  
 ---------------------------------------------------------------
 Warning -- This program may not be used in any manner that
 competes with the business of Gaussian, Inc. or will provide
 assistance to any competitor of Gaussian, Inc.  The licensee
 of this program is prohibited from giving any competitor of
 Gaussian, Inc. access to this program.  By using this program,
 the user acknowledges that Gaussian, Inc. is engaged in the
 business of creating and licensing software in the field of
 computational chemistry and represents and warrants to the
 licensee that it is not a competitor of Gaussian, Inc. and that
 it will not use this program in any manner prohibited above.
 ---------------------------------------------------------------
  

 Cite this work as:
 Gaussian 16, Revision A.03,
 M. J. Frisch, G. W. Trucks, H. B. Schlegel, G. E. Scuseria, 
 M. A. Robb, J. R. Cheeseman, G. Scalmani, V. Barone, 
 G. A. Petersson, H. Nakatsuji, X. Li, M. Caricato, A. V. Marenich, 
 J. Bloino, B. G. Janesko, R. Gomperts, B. Mennucci, H. P. Hratchian, 
 J. V. Ortiz, A. F. Izmaylov, J. L. Sonnenberg, D. Williams-Young, 
 F. Ding, F. Lipparini, F. Egidi, J. Goings, B. Peng, A. Petrone, 
 T. Henderson, D. Ranasinghe, V. G. Zakrzewski, J. Gao, N. Rega, 
 G. Zheng, W. Liang, M. Hada, M. Ehara, K. Toyota, R. Fukuda, 
 J. Hasegawa, M. Ishida, T. Nakajima, Y. Honda, O. Kitao, H. Nakai, 
 T. Vreven, K. Throssell, J. A. Montgomery, Jr., J. E. Peralta, 
 F. Ogliaro, M. J. Bearpark, J. J. Heyd, E. N. Brothers, K. N. Kudin, 
 V. N. Staroverov, T. A. Keith, R. Kobayashi, J. Normand, 
 K. Raghavachari, A. P. Rendell, J. C. Burant, S. S. Iyengar, 
 J. Tomasi, M. Cossi, J. M. Millam, M. Klene, C. Adamo, R. Cammi, 
 J. W. Ochterski, R. L. Martin, K. Morokuma, O. Farkas, 
 J. B. Foresman, and D. J. Fox, Gaussian, Inc., Wallingford CT, 2016.
 
 ******************************************
 Gaussian 16:  ES64L-G16RevA.03 25-Dec-2016
                28-May-2021 
 ******************************************
 %nprocshared=24
 Will use up to   24 processors via shared memory.
 %mem=90GB
 ----------------------------------------------------------------------
 # opt=(calcfc,ts,noeigentest) freq b3lyp/6-31+g(2df,p) scf=qc geom=con
 nectivity
 ----------------------------------------------------------------------
 1/5=1,10=4,11=1,18=20,26=3,38=1,57=2/1,3;
 2/9=110,12=2,17=6,18=5,40=1/2;
 3/5=1,6=6,7=114,11=2,25=1,30=1,71=2,74=-5,140=1/1,2,3;
 4//1;
 5/5=2,8=3,38=5/8;
 8/6=4,10=90,11=11/1;
 11/6=1,8=1,9=11,15=111,16=1/1,2,10;
 10/6=1,13=1/2;
 6/7=2,8=2,9=2,10=2,28=1/1;
 7/10=1,18=20,25=1/1,2,3,16;
 1/5=1,10=4,11=1,18=20,26=3/3(2);
 2/9=110/2;
 99//99;
 2/9=110/2;
 3/5=1,6=6,7=114,11=2,25=1,30=1,71=1,74=-5/1,2,3;
 4/5=5,16=3,69=1/1;
 5/5=2,8=3,38=5/8;
 7//1,2,3,16;
 1/5=1,11=1,18=20,26=3/3(-5);
 2/9=110/2;
 6/7=2,8=2,9=2,10=2,19=2,28=1/1;
 99/9=1/99;
 --------
 D4+OH TS
 --------
 Symbolic Z-matrix:
 Charge =  0 Multiplicity = 2
 O                     0.60532   1.63277   0.75312 
 O                    -1.93055   0.79643   0.41123 
 O                    -1.06397  -1.55876  -0.56831 
 O                     1.48112  -0.72336  -0.24234 
 Si                    1.94817   0.74715   0.38507 
 Si                   -2.41161  -0.66187  -0.20917 
 Si                   -0.86408   2.01866   0.08712 
 Si                    0.39405  -1.93087   0.1145 
 C                     2.95423   1.52098  -0.97911 
 H                     3.63991   2.31764  -0.68071 
 H                     2.3884    1.80873  -1.86858 
 C                     2.9392    0.50703   1.93668 
 H                     3.80709  -0.12892   1.73613 
 H                     3.29796   1.46752   2.31872 
 H                     2.3345    0.03844   2.71879 
 C                     0.20334  -2.05425   1.96877 
 H                    -0.50931  -2.84128   2.23635 
 H                     1.15913  -2.2874    2.4489 
 H                    -0.16488  -1.10814   2.38367 
 C                     1.03044  -3.48294  -0.68328 
 H                     2.01125  -3.75894  -0.28377 
 H                     0.34527  -4.3194   -0.5176 
 H                     1.12838  -3.33803  -1.76373 
 C                    -3.41954  -1.51232   1.10559 
 H                    -4.35547  -0.97438   1.28482 
 H                    -3.66529  -2.53762   0.81281 
 H                    -2.86722  -1.54583   2.04986 
 C                    -3.34753  -0.41693  -1.80025 
 H                    -3.74088  -1.36982  -2.16755 
 H                    -4.18853   0.26928  -1.66127 
 H                    -2.69094  -0.00619  -2.57333 
 C                    -1.4761    3.55882   0.92326 
 H                    -1.58017   3.38457   1.99821 
 H                    -0.77579   4.3867    0.77877 
 H                    -2.45214   3.85909   0.53102 
 C                    -0.66802   2.19233  -1.76382 
 H                    -1.62787   2.41387  -2.2416 
 H                     0.02657   3.00124  -2.01272 
 H                    -0.27963   1.26378  -2.19985 
 O                     4.10813  -0.62669  -1.61573 
 H                     3.26726  -1.08569  -1.41896 
 H                     3.66448   0.62827  -1.34437 
 
 Add virtual bond connecting atoms H42        and C9         Dist= 2.26D+00.
 Add virtual bond connecting atoms H42        and O40        Dist= 2.57D+00.

 GradGradGradGradGradGradGradGradGradGradGradGradGradGradGradGradGradGrad
 Berny optimization.
 Initialization pass.
                           ----------------------------
                           !    Initial Parameters    !
                           ! (Angstroms and Degrees)  !
 --------------------------                            --------------------------
 ! Name  Definition              Value          Derivative Info.                !
 --------------------------------------------------------------------------------
 ! R1    R(1,5)                  1.6502         calculate D2E/DX2 analytically  !
 ! R2    R(1,7)                  1.6588         calculate D2E/DX2 analytically  !
 ! R3    R(2,6)                  1.6562         calculate D2E/DX2 analytically  !
 ! R4    R(2,7)                  1.6542         calculate D2E/DX2 analytically  !
 ! R5    R(3,6)                  1.6582         calculate D2E/DX2 analytically  !
 ! R6    R(3,8)                  1.6524         calculate D2E/DX2 analytically  !
 ! R7    R(4,5)                  1.6656         calculate D2E/DX2 analytically  !
 ! R8    R(4,8)                  1.6635         calculate D2E/DX2 analytically  !
 ! R9    R(5,9)                  1.8633         calculate D2E/DX2 analytically  !
 ! R10   R(5,12)                 1.8567         calculate D2E/DX2 analytically  !
 ! R11   R(6,24)                 1.8622         calculate D2E/DX2 analytically  !
 ! R12   R(6,28)                 1.8621         calculate D2E/DX2 analytically  !
 ! R13   R(7,32)                 1.8563         calculate D2E/DX2 analytically  !
 ! R14   R(7,36)                 1.8694         calculate D2E/DX2 analytically  !
 ! R15   R(8,16)                 1.8681         calculate D2E/DX2 analytically  !
 ! R16   R(8,20)                 1.8575         calculate D2E/DX2 analytically  !
 ! R17   R(9,10)                 1.0926         calculate D2E/DX2 analytically  !
 ! R18   R(9,11)                 1.0928         calculate D2E/DX2 analytically  !
 ! R19   R(9,42)                 1.1978         calculate D2E/DX2 analytically  !
 ! R20   R(12,13)                1.0945         calculate D2E/DX2 analytically  !
 ! R21   R(12,14)                1.0942         calculate D2E/DX2 analytically  !
 ! R22   R(12,15)                1.094          calculate D2E/DX2 analytically  !
 ! R23   R(16,17)                1.0949         calculate D2E/DX2 analytically  !
 ! R24   R(16,18)                1.0947         calculate D2E/DX2 analytically  !
 ! R25   R(16,19)                1.0967         calculate D2E/DX2 analytically  !
 ! R26   R(20,21)                1.0944         calculate D2E/DX2 analytically  !
 ! R27   R(20,22)                1.0939         calculate D2E/DX2 analytically  !
 ! R28   R(20,23)                1.0945         calculate D2E/DX2 analytically  !
 ! R29   R(24,25)                1.0943         calculate D2E/DX2 analytically  !
 ! R30   R(24,26)                1.0942         calculate D2E/DX2 analytically  !
 ! R31   R(24,27)                1.0945         calculate D2E/DX2 analytically  !
 ! R32   R(28,29)                1.0944         calculate D2E/DX2 analytically  !
 ! R33   R(28,30)                1.0943         calculate D2E/DX2 analytically  !
 ! R34   R(28,31)                1.0943         calculate D2E/DX2 analytically  !
 ! R35   R(32,33)                1.0939         calculate D2E/DX2 analytically  !
 ! R36   R(32,34)                1.0939         calculate D2E/DX2 analytically  !
 ! R37   R(32,35)                1.0939         calculate D2E/DX2 analytically  !
 ! R38   R(36,37)                1.0948         calculate D2E/DX2 analytically  !
 ! R39   R(36,38)                1.0949         calculate D2E/DX2 analytically  !
 ! R40   R(36,39)                1.0969         calculate D2E/DX2 analytically  !
 ! R41   R(40,41)                0.978          calculate D2E/DX2 analytically  !
 ! R42   R(40,42)                1.3584         calculate D2E/DX2 analytically  !
 ! A1    A(5,1,7)              139.1266         calculate D2E/DX2 analytically  !
 ! A2    A(6,2,7)              139.8595         calculate D2E/DX2 analytically  !
 ! A3    A(6,3,8)              138.5398         calculate D2E/DX2 analytically  !
 ! A4    A(5,4,8)              138.015          calculate D2E/DX2 analytically  !
 ! A5    A(1,5,4)              109.2478         calculate D2E/DX2 analytically  !
 ! A6    A(1,5,9)              112.3208         calculate D2E/DX2 analytically  !
 ! A7    A(1,5,12)             108.5044         calculate D2E/DX2 analytically  !
 ! A8    A(4,5,9)              104.0206         calculate D2E/DX2 analytically  !
 ! A9    A(4,5,12)             110.5047         calculate D2E/DX2 analytically  !
 ! A10   A(9,5,12)             112.1692         calculate D2E/DX2 analytically  !
 ! A11   A(2,6,3)              108.7434         calculate D2E/DX2 analytically  !
 ! A12   A(2,6,24)             107.1495         calculate D2E/DX2 analytically  !
 ! A13   A(2,6,28)             110.5019         calculate D2E/DX2 analytically  !
 ! A14   A(3,6,24)             110.2301         calculate D2E/DX2 analytically  !
 ! A15   A(3,6,28)             107.1318         calculate D2E/DX2 analytically  !
 ! A16   A(24,6,28)            113.0349         calculate D2E/DX2 analytically  !
 ! A17   A(1,7,2)              108.696          calculate D2E/DX2 analytically  !
 ! A18   A(1,7,32)             107.7114         calculate D2E/DX2 analytically  !
 ! A19   A(1,7,36)             109.0411         calculate D2E/DX2 analytically  !
 ! A20   A(2,7,32)             108.1935         calculate D2E/DX2 analytically  !
 ! A21   A(2,7,36)             109.2849         calculate D2E/DX2 analytically  !
 ! A22   A(32,7,36)            113.7969         calculate D2E/DX2 analytically  !
 ! A23   A(3,8,4)              108.9357         calculate D2E/DX2 analytically  !
 ! A24   A(3,8,16)             109.5694         calculate D2E/DX2 analytically  !
 ! A25   A(3,8,20)             108.2393         calculate D2E/DX2 analytically  !
 ! A26   A(4,8,16)             109.1218         calculate D2E/DX2 analytically  !
 ! A27   A(4,8,20)             106.8884         calculate D2E/DX2 analytically  !
 ! A28   A(16,8,20)            113.9595         calculate D2E/DX2 analytically  !
 ! A29   A(5,9,10)             116.2113         calculate D2E/DX2 analytically  !
 ! A30   A(5,9,11)             115.1956         calculate D2E/DX2 analytically  !
 ! A31   A(5,9,42)             103.5266         calculate D2E/DX2 analytically  !
 ! A32   A(10,9,11)            110.8083         calculate D2E/DX2 analytically  !
 ! A33   A(10,9,42)            104.7474         calculate D2E/DX2 analytically  !
 ! A34   A(11,9,42)            104.7777         calculate D2E/DX2 analytically  !
 ! A35   A(5,12,13)            110.1982         calculate D2E/DX2 analytically  !
 ! A36   A(5,12,14)            110.6874         calculate D2E/DX2 analytically  !
 ! A37   A(5,12,15)            110.9646         calculate D2E/DX2 analytically  !
 ! A38   A(13,12,14)           108.303          calculate D2E/DX2 analytically  !
 ! A39   A(13,12,15)           108.688          calculate D2E/DX2 analytically  !
 ! A40   A(14,12,15)           107.9149         calculate D2E/DX2 analytically  !
 ! A41   A(8,16,17)            110.8845         calculate D2E/DX2 analytically  !
 ! A42   A(8,16,18)            111.1163         calculate D2E/DX2 analytically  !
 ! A43   A(8,16,19)            110.6586         calculate D2E/DX2 analytically  !
 ! A44   A(17,16,18)           107.9382         calculate D2E/DX2 analytically  !
 ! A45   A(17,16,19)           108.0049         calculate D2E/DX2 analytically  !
 ! A46   A(18,16,19)           108.1155         calculate D2E/DX2 analytically  !
 ! A47   A(8,20,21)            111.1601         calculate D2E/DX2 analytically  !
 ! A48   A(8,20,22)            111.0562         calculate D2E/DX2 analytically  !
 ! A49   A(8,20,23)            110.1208         calculate D2E/DX2 analytically  !
 ! A50   A(21,20,22)           108.2529         calculate D2E/DX2 analytically  !
 ! A51   A(21,20,23)           108.2728         calculate D2E/DX2 analytically  !
 ! A52   A(22,20,23)           107.8668         calculate D2E/DX2 analytically  !
 ! A53   A(6,24,25)            110.736          calculate D2E/DX2 analytically  !
 ! A54   A(6,24,26)            111.1352         calculate D2E/DX2 analytically  !
 ! A55   A(6,24,27)            110.486          calculate D2E/DX2 analytically  !
 ! A56   A(25,24,26)           108.2013         calculate D2E/DX2 analytically  !
 ! A57   A(25,24,27)           107.7801         calculate D2E/DX2 analytically  !
 ! A58   A(26,24,27)           108.391          calculate D2E/DX2 analytically  !
 ! A59   A(6,28,29)            110.6647         calculate D2E/DX2 analytically  !
 ! A60   A(6,28,30)            111.1149         calculate D2E/DX2 analytically  !
 ! A61   A(6,28,31)            110.5753         calculate D2E/DX2 analytically  !
 ! A62   A(29,28,30)           108.2043         calculate D2E/DX2 analytically  !
 ! A63   A(29,28,31)           107.781          calculate D2E/DX2 analytically  !
 ! A64   A(30,28,31)           108.3898         calculate D2E/DX2 analytically  !
 ! A65   A(7,32,33)            109.9881         calculate D2E/DX2 analytically  !
 ! A66   A(7,32,34)            110.9372         calculate D2E/DX2 analytically  !
 ! A67   A(7,32,35)            111.1249         calculate D2E/DX2 analytically  !
 ! A68   A(33,32,34)           108.1339         calculate D2E/DX2 analytically  !
 ! A69   A(33,32,35)           108.1305         calculate D2E/DX2 analytically  !
 ! A70   A(34,32,35)           108.4271         calculate D2E/DX2 analytically  !
 ! A71   A(7,36,37)            111.035          calculate D2E/DX2 analytically  !
 ! A72   A(7,36,38)            111.1163         calculate D2E/DX2 analytically  !
 ! A73   A(7,36,39)            110.6152         calculate D2E/DX2 analytically  !
 ! A74   A(37,36,38)           107.9073         calculate D2E/DX2 analytically  !
 ! A75   A(37,36,39)           107.9538         calculate D2E/DX2 analytically  !
 ! A76   A(38,36,39)           108.085          calculate D2E/DX2 analytically  !
 ! A77   A(41,40,42)            96.4646         calculate D2E/DX2 analytically  !
 ! A78   A(9,42,40)            160.5709         calculate D2E/DX2 analytically  !
 ! D1    D(7,1,5,4)            -44.1201         calculate D2E/DX2 analytically  !
 ! D2    D(7,1,5,9)             70.762          calculate D2E/DX2 analytically  !
 ! D3    D(7,1,5,12)          -164.6584         calculate D2E/DX2 analytically  !
 ! D4    D(5,1,7,2)             83.4625         calculate D2E/DX2 analytically  !
 ! D5    D(5,1,7,32)          -159.5309         calculate D2E/DX2 analytically  !
 ! D6    D(5,1,7,36)           -35.5918         calculate D2E/DX2 analytically  !
 ! D7    D(7,2,6,3)             47.5026         calculate D2E/DX2 analytically  !
 ! D8    D(7,2,6,24)           166.637          calculate D2E/DX2 analytically  !
 ! D9    D(7,2,6,28)           -69.819          calculate D2E/DX2 analytically  !
 ! D10   D(6,2,7,1)            -86.0384         calculate D2E/DX2 analytically  !
 ! D11   D(6,2,7,32)           157.2636         calculate D2E/DX2 analytically  !
 ! D12   D(6,2,7,36)            32.863          calculate D2E/DX2 analytically  !
 ! D13   D(8,3,6,2)             43.6585         calculate D2E/DX2 analytically  !
 ! D14   D(8,3,6,24)           -73.5288         calculate D2E/DX2 analytically  !
 ! D15   D(8,3,6,28)           163.1058         calculate D2E/DX2 analytically  !
 ! D16   D(6,3,8,4)            -84.6636         calculate D2E/DX2 analytically  !
 ! D17   D(6,3,8,16)            34.6446         calculate D2E/DX2 analytically  !
 ! D18   D(6,3,8,20)           159.4599         calculate D2E/DX2 analytically  !
 ! D19   D(8,4,5,1)            -46.4527         calculate D2E/DX2 analytically  !
 ! D20   D(8,4,5,9)           -166.5734         calculate D2E/DX2 analytically  !
 ! D21   D(8,4,5,12)            72.8544         calculate D2E/DX2 analytically  !
 ! D22   D(5,4,8,3)             86.6519         calculate D2E/DX2 analytically  !
 ! D23   D(5,4,8,16)           -32.9347         calculate D2E/DX2 analytically  !
 ! D24   D(5,4,8,20)          -156.6067         calculate D2E/DX2 analytically  !
 ! D25   D(1,5,9,10)            82.4337         calculate D2E/DX2 analytically  !
 ! D26   D(1,5,9,11)           -49.5722         calculate D2E/DX2 analytically  !
 ! D27   D(1,5,9,42)          -163.345          calculate D2E/DX2 analytically  !
 ! D28   D(4,5,9,10)          -159.5439         calculate D2E/DX2 analytically  !
 ! D29   D(4,5,9,11)            68.4502         calculate D2E/DX2 analytically  !
 ! D30   D(4,5,9,42)           -45.3226         calculate D2E/DX2 analytically  !
 ! D31   D(12,5,9,10)          -40.0975         calculate D2E/DX2 analytically  !
 ! D32   D(12,5,9,11)         -172.1033         calculate D2E/DX2 analytically  !
 ! D33   D(12,5,9,42)           74.1238         calculate D2E/DX2 analytically  !
 ! D34   D(1,5,12,13)          176.6119         calculate D2E/DX2 analytically  !
 ! D35   D(1,5,12,14)          -63.6124         calculate D2E/DX2 analytically  !
 ! D36   D(1,5,12,15)           56.1761         calculate D2E/DX2 analytically  !
 ! D37   D(4,5,12,13)           56.8561         calculate D2E/DX2 analytically  !
 ! D38   D(4,5,12,14)          176.6318         calculate D2E/DX2 analytically  !
 ! D39   D(4,5,12,15)          -63.5797         calculate D2E/DX2 analytically  !
 ! D40   D(9,5,12,13)          -58.7188         calculate D2E/DX2 analytically  !
 ! D41   D(9,5,12,14)           61.0569         calculate D2E/DX2 analytically  !
 ! D42   D(9,5,12,15)         -179.1546         calculate D2E/DX2 analytically  !
 ! D43   D(2,6,24,25)           66.93           calculate D2E/DX2 analytically  !
 ! D44   D(2,6,24,26)         -172.7764         calculate D2E/DX2 analytically  !
 ! D45   D(2,6,24,27)          -52.4107         calculate D2E/DX2 analytically  !
 ! D46   D(3,6,24,25)         -174.8985         calculate D2E/DX2 analytically  !
 ! D47   D(3,6,24,26)          -54.6048         calculate D2E/DX2 analytically  !
 ! D48   D(3,6,24,27)           65.7608         calculate D2E/DX2 analytically  !
 ! D49   D(28,6,24,25)         -55.0418         calculate D2E/DX2 analytically  !
 ! D50   D(28,6,24,26)          65.2518         calculate D2E/DX2 analytically  !
 ! D51   D(28,6,24,27)        -174.3826         calculate D2E/DX2 analytically  !
 ! D52   D(2,6,28,29)         -175.1164         calculate D2E/DX2 analytically  !
 ! D53   D(2,6,28,30)          -54.8801         calculate D2E/DX2 analytically  !
 ! D54   D(2,6,28,31)           65.5301         calculate D2E/DX2 analytically  !
 ! D55   D(3,6,28,29)           66.5731         calculate D2E/DX2 analytically  !
 ! D56   D(3,6,28,30)         -173.1906         calculate D2E/DX2 analytically  !
 ! D57   D(3,6,28,31)          -52.7804         calculate D2E/DX2 analytically  !
 ! D58   D(24,6,28,29)         -55.0455         calculate D2E/DX2 analytically  !
 ! D59   D(24,6,28,30)          65.1908         calculate D2E/DX2 analytically  !
 ! D60   D(24,6,28,31)        -174.399          calculate D2E/DX2 analytically  !
 ! D61   D(1,7,32,33)          -59.7266         calculate D2E/DX2 analytically  !
 ! D62   D(1,7,32,34)           59.8621         calculate D2E/DX2 analytically  !
 ! D63   D(1,7,32,35)         -179.4305         calculate D2E/DX2 analytically  !
 ! D64   D(2,7,32,33)           57.6065         calculate D2E/DX2 analytically  !
 ! D65   D(2,7,32,34)          177.1952         calculate D2E/DX2 analytically  !
 ! D66   D(2,7,32,35)          -62.0974         calculate D2E/DX2 analytically  !
 ! D67   D(36,7,32,33)         179.2669         calculate D2E/DX2 analytically  !
 ! D68   D(36,7,32,34)         -61.1445         calculate D2E/DX2 analytically  !
 ! D69   D(36,7,32,35)          59.5629         calculate D2E/DX2 analytically  !
 ! D70   D(1,7,36,37)          178.0644         calculate D2E/DX2 analytically  !
 ! D71   D(1,7,36,38)          -61.8256         calculate D2E/DX2 analytically  !
 ! D72   D(1,7,36,39)           58.2285         calculate D2E/DX2 analytically  !
 ! D73   D(2,7,36,37)           59.3777         calculate D2E/DX2 analytically  !
 ! D74   D(2,7,36,38)          179.4877         calculate D2E/DX2 analytically  !
 ! D75   D(2,7,36,39)          -60.4582         calculate D2E/DX2 analytically  !
 ! D76   D(32,7,36,37)         -61.6749         calculate D2E/DX2 analytically  !
 ! D77   D(32,7,36,38)          58.4351         calculate D2E/DX2 analytically  !
 ! D78   D(32,7,36,39)         178.4892         calculate D2E/DX2 analytically  !
 ! D79   D(3,8,16,17)           60.6984         calculate D2E/DX2 analytically  !
 ! D80   D(3,8,16,18)         -179.2531         calculate D2E/DX2 analytically  !
 ! D81   D(3,8,16,19)          -59.1318         calculate D2E/DX2 analytically  !
 ! D82   D(4,8,16,17)          179.8919         calculate D2E/DX2 analytically  !
 ! D83   D(4,8,16,18)          -60.0596         calculate D2E/DX2 analytically  !
 ! D84   D(4,8,16,19)           60.0618         calculate D2E/DX2 analytically  !
 ! D85   D(20,8,16,17)         -60.7322         calculate D2E/DX2 analytically  !
 ! D86   D(20,8,16,18)          59.3162         calculate D2E/DX2 analytically  !
 ! D87   D(20,8,16,19)         179.4376         calculate D2E/DX2 analytically  !
 ! D88   D(3,8,20,21)          178.456          calculate D2E/DX2 analytically  !
 ! D89   D(3,8,20,22)          -60.953          calculate D2E/DX2 analytically  !
 ! D90   D(3,8,20,23)           58.4645         calculate D2E/DX2 analytically  !
 ! D91   D(4,8,20,21)           61.2544         calculate D2E/DX2 analytically  !
 ! D92   D(4,8,20,22)         -178.1546         calculate D2E/DX2 analytically  !
 ! D93   D(4,8,20,23)          -58.7371         calculate D2E/DX2 analytically  !
 ! D94   D(16,8,20,21)         -59.3786         calculate D2E/DX2 analytically  !
 ! D95   D(16,8,20,22)          61.2124         calculate D2E/DX2 analytically  !
 ! D96   D(16,8,20,23)        -179.3701         calculate D2E/DX2 analytically  !
 ! D97   D(5,9,42,40)           29.4399         calculate D2E/DX2 analytically  !
 ! D98   D(10,9,42,40)         151.6539         calculate D2E/DX2 analytically  !
 ! D99   D(11,9,42,40)         -91.6442         calculate D2E/DX2 analytically  !
 ! D100  D(41,40,42,9)           7.6699         calculate D2E/DX2 analytically  !
 --------------------------------------------------------------------------------
 Trust Radius=3.00D-01 FncErr=1.00D-07 GrdErr=1.00D-06 EigMax=2.50D+02 EigMin=1.00D-04
 Number of steps in this run=    230 maximum allowed number of steps=    252.
 Search for a saddle point of order  1.
 GradGradGradGradGradGradGradGradGradGradGradGradGradGradGradGradGradGrad

                          Input orientation:                          
 ---------------------------------------------------------------------
 Center     Atomic      Atomic             Coordinates (Angstroms)
 Number     Number       Type             X           Y           Z
 ---------------------------------------------------------------------
      1          8           0        0.605318    1.632767    0.753122
      2          8           0       -1.930550    0.796432    0.411230
      3          8           0       -1.063970   -1.558760   -0.568310
      4          8           0        1.481121   -0.723360   -0.242340
      5         14           0        1.948169    0.747154    0.385071
      6         14           0       -2.411610   -0.661870   -0.209170
      7         14           0       -0.864080    2.018662    0.087115
      8         14           0        0.394046   -1.930870    0.114500
      9          6           0        2.954228    1.520976   -0.979110
     10          1           0        3.639914    2.317636   -0.680710
     11          1           0        2.388401    1.808727   -1.868580
     12          6           0        2.939199    0.507029    1.936683
     13          1           0        3.807085   -0.128920    1.736126
     14          1           0        3.297960    1.467519    2.318718
     15          1           0        2.334502    0.038440    2.718794
     16          6           0        0.203337   -2.054250    1.968769
     17          1           0       -0.509310   -2.841280    2.236353
     18          1           0        1.159133   -2.287400    2.448895
     19          1           0       -0.164880   -1.108140    2.383674
     20          6           0        1.030442   -3.482940   -0.683280
     21          1           0        2.011254   -3.758940   -0.283770
     22          1           0        0.345273   -4.319400   -0.517600
     23          1           0        1.128384   -3.338030   -1.763730
     24          6           0       -3.419540   -1.512320    1.105588
     25          1           0       -4.355470   -0.974380    1.284815
     26          1           0       -3.665290   -2.537620    0.812807
     27          1           0       -2.867220   -1.545830    2.049861
     28          6           0       -3.347530   -0.416930   -1.800250
     29          1           0       -3.740880   -1.369820   -2.167550
     30          1           0       -4.188530    0.269283   -1.661270
     31          1           0       -2.690940   -0.006190   -2.573330
     32          6           0       -1.476100    3.558824    0.923259
     33          1           0       -1.580170    3.384574    1.998213
     34          1           0       -0.775790    4.386700    0.778766
     35          1           0       -2.452140    3.859093    0.531015
     36          6           0       -0.668020    2.192326   -1.763820
     37          1           0       -1.627870    2.413868   -2.241600
     38          1           0        0.026570    3.001236   -2.012720
     39          1           0       -0.279630    1.263783   -2.199850
     40          8           0        4.108131   -0.626690   -1.615730
     41          1           0        3.267262   -1.085690   -1.418960
     42          1           0        3.664483    0.628268   -1.344370
 ---------------------------------------------------------------------
                    Distance matrix (angstroms):
                    1          2          3          4          5
     1  O    0.000000
     2  O    2.692020   0.000000
     3  O    3.836476   2.693954   0.000000
     4  O    2.703574   3.791625   2.698451   0.000000
     5  Si   1.650158   3.879120   3.911414   1.665590   0.000000
     6  Si   3.910655   1.656188   1.658170   3.893358   4.620189
     7  Si   1.658798   1.654163   3.642456   3.623147   3.100686
     8  Si   3.626566   3.595827   1.652424   1.663474   3.108105
     9  C    2.920703   5.130211   5.079315   2.783868   1.863316
    10  H    3.425448   5.876773   6.096360   3.755025   2.542500
    11  H    3.175479   4.987546   4.994951   3.143132   2.529760
    12  C    2.848702   5.111283   5.154400   2.896203   1.856691
    13  H    3.784330   5.960879   5.575127   3.110915   2.459354
    14  H    3.119089   5.605906   6.043156   3.828821   2.465736
    15  H    3.065261   4.908164   4.990562   3.174415   2.469371
    16  C    3.903009   3.886617   2.878949   2.879757   3.660656
    17  H    4.843497   4.310910   3.133471   3.819859   4.726871
    18  H    4.306979   4.817493   3.817935   3.129320   3.753727
    19  H    3.280926   3.261215   3.118594   3.123031   3.449856
    20  C    5.330520   5.317749   2.846445   2.830693   4.458396
    21  H    5.667654   6.064013   3.791933   3.081802   4.555898
    22  H    6.091851   5.675723   3.099947   3.781193   5.390182
    23  H    5.596156   5.584022   3.066145   3.045579   4.688083
    24  C    5.120087   2.833648   2.890121   5.143525   5.868276
    25  H    5.629328   3.127165   3.822243   6.038295   6.596142
    26  H    5.969404   3.779747   3.103630   5.557915   6.517946
    27  H    4.882984   3.008098   3.179103   4.983845   5.587242
    28  C    5.132833   2.893220   2.834801   5.082996   5.845951
    29  H    6.036165   3.823617   3.123958   5.603003   6.585038
    30  H    5.537992   3.109922   3.781425   5.928208   6.486520
    31  H    4.961530   3.182765   3.012907   4.832591   5.553467
    32  C    2.840941   2.845963   5.346428   5.332999   4.463267
    33  H    3.065198   3.056102   5.593751   5.591664   4.691203
    34  H    3.080952   3.789271   6.102963   5.678822   4.563030
    35  H    3.788655   3.109067   5.699883   6.088308   5.391492
    36  C    2.875673   2.876342   3.956851   3.928732   3.681127
    37  H    3.816491   3.121734   4.347373   4.848202   4.739767
    38  H    3.139672   3.816676   4.906033   4.372937   3.810883
    39  H    3.104726   3.124371   3.353187   3.298610   3.451349
    40  O    4.794403   6.526830   5.358775   2.965928   3.249013
    41  H    4.381084   5.823163   4.439253   2.169336   2.890303
    42  H    3.842783   5.866413   5.267222   2.794358   2.439433
                    6          7          8          9         10
     6  Si   0.000000
     7  Si   3.109322   0.000000
     8  Si   3.096260   4.145170   0.000000
     9  C    5.843787   3.995498   4.434609   0.000000
    10  H    6.761712   4.578745   5.405351   1.092646   0.000000
    11  H    5.647796   3.800980   4.679171   1.092757   1.798974
    12  C    5.882361   4.491199   3.967557   3.087096   3.258841
    13  H    6.537613   5.399178   4.186350   3.289685   3.443062
    14  H    6.597250   4.754617   4.984009   3.316124   3.136272
    15  H    5.620408   4.591072   3.798144   4.031931   4.295982
    16  C    3.676967   4.611791   1.868129   5.388843   6.159804
    17  H    3.788028   5.325798   2.479346   6.431530   7.234620
    18  H    4.738973   5.311644   2.482312   5.429301   6.095495
    19  H    3.459739   3.942075   2.477586   5.286719   5.966812
    20  C    4.475594   5.869442   1.857518   5.369138   6.360506
    21  H    5.399920   6.464193   2.473019   5.408346   6.303560
    22  H    4.590540   6.480682   2.471235   6.413239   7.411580
    23  H    4.702132   6.007469   2.459085   5.249693   6.282298
    24  C    1.862197   4.476103   3.962433   7.360147   8.227716
    25  H    2.471486   4.752114   4.984216   8.048841   8.867177
    26  H    2.476810   5.397510   4.163410   7.968763   8.897759
    27  H    2.468236   4.535476   3.811789   7.243564   8.045196
    28  C    1.862116   3.957497   4.467401   6.643937   7.586540
    29  H    2.470507   4.984105   4.756064   7.388746   8.383564
    30  H    2.476507   4.143567   5.384611   7.283617   8.151183
    31  H    2.469250   3.809910   4.521721   6.061493   7.004419
    32  C    4.468986   1.856288   5.855619   5.234466   5.503350
    33  H    4.683753   2.455768   5.974935   5.735697   5.963578
    34  H    5.398146   2.468558   6.459215   5.021507   5.090141
    35  H    4.581334   2.471066   6.465132   6.080796   6.399804
    36  C    3.688289   1.869374   4.653688   3.766585   4.443774
    37  H    3.768977   2.482434   5.340047   4.835986   5.495015
    38  H    4.755614   2.483549   5.383844   3.439579   3.911242
    39  H    3.495180   2.478232   4.001982   3.466149   4.333730
    40  O    6.669833   5.883915   4.299885   2.519771   3.124507
    41  H    5.821753   5.382681   3.364699   2.661985   3.502358
    42  H    6.314431   4.948760   4.401505   1.197833   1.815217
                   11         12         13         14         15
    11  H    0.000000
    12  C    4.059288   0.000000
    13  H    4.331402   1.094477   0.000000
    14  H    4.298510   1.094167   1.774046   0.000000
    15  H    4.917400   1.094044   1.778243   1.769344   0.000000
    16  C    5.867056   3.747815   4.092434   4.701278   3.079570
    17  H    6.846150   4.815931   5.122342   5.750464   4.075881
    18  H    6.077001   3.352585   3.489803   4.323302   2.619899
    19  H    5.754044   3.527588   4.141823   4.316190   2.770174
    20  C    5.590235   5.140760   4.981237   6.217771   5.067030
    21  H    5.801101   4.897957   4.525708   5.978665   4.851801
    22  H    6.599504   6.003863   5.884178   7.088829   5.781180
    23  H    5.299787   5.635298   5.451864   6.668339   5.740060
    24  C    7.321694   6.723247   7.384814   7.448217   6.173839
    25  H    7.947917   7.472061   8.218624   8.099804   6.916489
    26  H    7.920085   7.358822   7.905109   8.172867   6.801939
    27  H    7.364020   6.159671   6.830257   6.867460   5.478622
    28  C    6.152977   7.371657   7.986077   8.042362   7.274243
    29  H    6.910907   8.061684   8.587799   8.816029   7.922741
    30  H    6.757876   7.987885   8.696593   8.562920   7.860547
    31  H    5.439697   7.232017   7.798128   7.872158   7.298194
    32  C    5.078540   5.462174   6.494017   5.395601   5.489785
    33  H    5.760637   5.358054   6.437068   5.251093   5.200049
    34  H    4.864822   5.494885   6.504622   5.242948   5.687266
    35  H    5.778659   6.502213   7.518939   6.479133   6.503515
    36  C    3.082180   5.435621   6.137130   5.737722   5.809319
    37  H    4.078697   6.477052   7.199084   6.779076   6.778537
    38  H    2.649736   5.504749   6.176084   5.640535   6.040855
    39  H    2.743190   5.295700   5.842326   5.766985   5.703351
    40  O    2.992100   3.907859   3.401962   4.530118   4.730355
    41  H    3.058137   3.728903   3.340866   4.526594   4.388020
    42  H    1.815672   3.362446   3.175394   3.775830   4.315791
                   16         17         18         19         20
    16  C    0.000000
    17  H    1.094935   0.000000
    18  H    1.094726   1.770779   0.000000
    19  H    1.096747   1.773164   1.774237   0.000000
    20  C    3.123879   3.362562   3.355056   4.058901   0.000000
    21  H    3.353873   3.680538   3.218540   4.344831   1.094430
    22  H    3.366464   3.240279   3.686663   4.357733   1.093879
    23  H    4.054054   4.350801   4.341771   4.883227   1.094515
    24  C    3.763510   3.393258   4.834198   3.519897   5.185145
    25  H    4.734621   4.379919   5.787050   4.334331   6.258939
    26  H    4.066469   3.475472   5.100436   4.094375   5.018148
    27  H    3.113420   2.696796   4.113475   2.757833   5.139477
    28  C    5.430928   5.497920   6.470232   5.302099   5.460282
    29  H    5.756251   5.657084   6.794383   5.793953   5.425297
    30  H    6.153412   6.197074   7.213015   5.869295   6.501793
    31  H    5.762122   5.994188   6.726792   5.671610   5.432197
    32  C    5.951487   6.604561   6.591688   5.062871   7.645270
    33  H    5.723860   6.321765   6.314918   4.726109   7.821026
    34  H    6.622736   7.378297   7.146808   5.756927   8.205564
    35  H    6.639753   7.181766   7.382339   5.773847   8.216346
    36  C    5.720567   6.431467   6.415092   5.324278   6.021709
    37  H    6.406606   6.994271   7.202086   5.994834   6.653370
    38  H    6.437503   7.244086   7.011304   6.020955   6.694752
    39  H    5.349765   6.048487   6.024265   5.162158   5.152441
    40  O    5.489442   6.408098   5.289208   5.872448   4.301139
    41  H    4.669310   5.541291   4.566029   5.122512   3.360267
    42  H    5.491113   6.502299   5.400626   5.619381   4.927194
                   21         22         23         24         25
    21  H    0.000000
    22  H    1.773213   0.000000
    23  H    1.773952   1.768952   0.000000
    24  C    6.039134   4.968728   5.678892   0.000000
    25  H    7.123862   6.044406   6.704709   1.094288   0.000000
    26  H    5.909082   4.585776   5.500774   1.094237   1.772811
    27  H    5.843218   4.960308   5.806919   1.094455   1.768259
    28  C    6.495022   5.523700   5.344901   3.106277   3.293071
    29  H    6.507193   5.302735   5.267509   3.291960   3.528869
    30  H    7.520732   6.551287   6.425946   3.379491   3.202184
    31  H    6.437068   5.661130   5.132626   4.041500   4.311999
    32  C    8.195622   8.213397   7.846645   5.433848   5.382512
    33  H    8.314780   8.329938   8.165898   5.306565   5.216484
    34  H    8.674563   8.873191   8.352342   6.472609   6.466171
    35  H    8.866803   8.707058   8.359700   5.487994   5.249128
    36  C    6.692281   6.706892   5.814800   5.434038   5.737551
    37  H    7.428316   7.225121   6.396063   5.461566   5.599610
    38  H    7.254531   7.478547   6.439121   6.478557   6.773591
    39  H    5.843566   5.864503   4.832120   5.337762   5.810743
    40  O    3.997749   5.385267   4.031397   8.053306   8.953580
    41  H    3.164250   4.450545   3.125172   7.160215   8.088809
    42  H    4.806832   6.014991   4.726434   7.795370   8.590736
                   26         27         28         29         30
    26  H    0.000000
    27  H    1.775068   0.000000
    28  C    3.380291   4.040850   0.000000
    29  H    3.201874   4.310547   1.094364   0.000000
    30  H    3.778034   4.337394   1.094296   1.772955   0.000000
    31  H    4.338596   4.876009   1.094290   1.768196   1.774969
    32  C    6.478532   5.409431   5.169755   6.242905   4.985794
    33  H    6.389467   5.095885   5.657147   6.680308   5.468125
    34  H    7.503104   6.417529   6.028269   7.114075   5.878239
    35  H    6.516830   5.629598   4.951857   6.023673   4.550593
    36  C    6.164010   5.775331   3.740230   4.721689   4.012805
    37  H    6.164229   5.969241   3.341472   4.334350   3.390134
    38  H    7.231346   6.749400   4.807656   5.772675   5.035291
    39  H    5.915189   5.713982   3.520864   4.349386   4.069226
    40  O    8.365137   7.933278   7.460893   7.903399   8.345024
    41  H    7.426248   7.062317   6.659437   7.053735   7.581787
    42  H    8.270540   7.675327   7.104125   7.714232   7.867599
                   31         32         33         34         35
    31  H    0.000000
    32  C    5.139192   0.000000
    33  H    5.799146   1.093947   0.000000
    34  H    5.848233   1.093934   1.771535   0.000000
    35  H    4.963305   1.093925   1.771488   1.774795   0.000000
    36  C    3.095317   3.121010   4.050477   3.360303   3.350741
    37  H    2.663990   3.369019   4.349777   3.706847   3.233495
    38  H    4.091913   3.344980   4.337758   3.218025   3.653835
    39  H    2.750770   4.056176   4.879845   4.344069   4.348915
    40  O    6.894156   7.426212   7.842678   7.397322   8.232127
    41  H    6.164257   7.039672   7.426838   7.150057   7.807999
    42  H    6.504174   6.336868   6.802681   6.192701   7.167174
                   36         37         38         39         40
    36  C    0.000000
    37  H    1.094836   0.000000
    38  H    1.094871   1.770469   0.000000
    39  H    1.096887   1.772622   1.774125   0.000000
    40  O    5.548009   6.522148   5.475271   4.813266   0.000000
    41  H    5.133299   6.073381   5.249533   4.325535   0.977988
    42  H    4.625235   5.657065   4.394551   4.085554   1.358447
                   41         42
    41  H    0.000000
    42  H    1.760966   0.000000
 Stoichiometry    C8H25O5Si4(2)
 Framework group  C1[X(C8H25O5Si4)]
 Deg. of freedom   120
 Full point group                 C1      NOp   1
 Largest Abelian subgroup         C1      NOp   1
 Largest concise Abelian subgroup C1      NOp   1
                         Standard orientation:                         
 ---------------------------------------------------------------------
 Center     Atomic      Atomic             Coordinates (Angstroms)
 Number     Number       Type             X           Y           Z
 ---------------------------------------------------------------------
      1          8           0        0.605320    1.632767    0.753122
      2          8           0       -1.930549    0.796435    0.411230
      3          8           0       -1.063972   -1.558758   -0.568310
      4          8           0        1.481120   -0.723362   -0.242340
      5         14           0        1.948170    0.747152    0.385071
      6         14           0       -2.411610   -0.661867   -0.209170
      7         14           0       -0.864077    2.018663    0.087115
      8         14           0        0.394044   -1.930870    0.114500
      9          6           0        2.954230    1.520973   -0.979110
     10          1           0        3.639917    2.317632   -0.680710
     11          1           0        2.388403    1.808724   -1.868580
     12          6           0        2.939200    0.507026    1.936683
     13          1           0        3.807085   -0.128924    1.736126
     14          1           0        3.297962    1.467515    2.318718
     15          1           0        2.334502    0.038437    2.718794
     16          6           0        0.203335   -2.054250    1.968769
     17          1           0       -0.509313   -2.841279    2.236353
     18          1           0        1.159131   -2.287401    2.448895
     19          1           0       -0.164881   -1.108140    2.383674
     20          6           0        1.030438   -3.482941   -0.683280
     21          1           0        2.011250   -3.758942   -0.283770
     22          1           0        0.345268   -4.319400   -0.517600
     23          1           0        1.128380   -3.338031   -1.763730
     24          6           0       -3.419542   -1.512316    1.105588
     25          1           0       -4.355471   -0.974374    1.284815
     26          1           0       -3.665293   -2.537615    0.812807
     27          1           0       -2.867222   -1.545826    2.049861
     28          6           0       -3.347530   -0.416926   -1.800250
     29          1           0       -3.740881   -1.369815   -2.167550
     30          1           0       -4.188529    0.269288   -1.661270
     31          1           0       -2.690940   -0.006186   -2.573330
     32          6           0       -1.476095    3.558826    0.923259
     33          1           0       -1.580166    3.384576    1.998213
     34          1           0       -0.775784    4.386701    0.778766
     35          1           0       -2.452135    3.859096    0.531015
     36          6           0       -0.668017    2.192327   -1.763820
     37          1           0       -1.627867    2.413870   -2.241600
     38          1           0        0.026574    3.001236   -2.012720
     39          1           0       -0.279628    1.263784   -2.199850
     40          8           0        4.108131   -0.626695   -1.615730
     41          1           0        3.267261   -1.085694   -1.418960
     42          1           0        3.664484    0.628264   -1.344370
 ---------------------------------------------------------------------
 Rotational constants (GHZ):           0.3818661           0.2899434           0.2151482
 Standard basis: 6-31+G(2df,p) (6D, 7F)
 There are   736 symmetry adapted cartesian basis functions of A   symmetry.
 There are   685 symmetry adapted basis functions of A   symmetry.
   685 basis functions,  1087 primitive gaussians,   736 cartesian basis functions
    85 alpha electrons       84 beta electrons
       nuclear repulsion energy      2084.8207768937 Hartrees.
 NAtoms=   42 NActive=   42 NUniq=   42 SFac= 1.00D+00 NAtFMM=   60 NAOKFM=F Big=F
 Integral buffers will be    131072 words long.
 Raffenetti 2 integral format.
 Two-electron integral symmetry is turned on.
 One-electron integrals computed using PRISM.
 NBasis=   685 RedAO= T EigKep=  1.52D-05  NBF=   685
 NBsUse=   685 1.00D-06 EigRej= -1.00D+00 NBFU=   685
 ExpMin= 3.31D-02 ExpMax= 1.61D+04 ExpMxC= 2.43D+03 IAcc=3 IRadAn=         5 AccDes= 0.00D+00
 Harris functional with IExCor=  402 and IRadAn=       5 diagonalized for initial guess.
 HarFok:  IExCor=  402 AccDes= 0.00D+00 IRadAn=         5 IDoV= 1 UseB2=F ITyADJ=14
 ICtDFT=  3500011 ScaDFX=  1.000000  1.000000  1.000000  1.000000
 FoFCou: FMM=F IPFlag=           0 FMFlag=      100000 FMFlg1=           0
         NFxFlg=           0 DoJE=T BraDBF=F KetDBF=T FulRan=T
         wScrn=  0.000000 ICntrl=       500 IOpCl=  0 I1Cent=   200000004 NGrid=           0
         NMat0=    1 NMatS0=      1 NMatT0=    0 NMatD0=    1 NMtDS0=    0 NMtDT0=    0
 Petite list used in FoFCou.
 Initial guess <Sx>= 0.0000 <Sy>= 0.0000 <Sz>= 0.5000 <S**2>= 0.7500 S= 0.5000
 Gradient too large for Newton-Raphson -- use scaled steepest descent instead.
     Accept linear search using points  2 and  3.
 Gradient too large for Newton-Raphson -- use scaled steepest descent instead.
     Minimum is close to point  3 DX=  5.69D-02 DF= -1.41D-04 DXR=  8.67D-02 DFR=  7.56D-03 which will be used.
 Gradient too large for Newton-Raphson -- use scaled steepest descent instead.
     Accept linear search using points  1 and  2.
 Gradient too large for Newton-Raphson -- use scaled steepest descent instead.
     Accept linear search using points  2 and  3.
 Gradient too large for Newton-Raphson -- use scaled steepest descent instead.
     Accept linear search using points  1 and  2.
 LinEq1:  Iter=  0 NonCon=     1 RMS=4.19D-05 Max=5.96D-03 NDo=     1
 AX will form     1 AO Fock derivatives at one time.
 LinEq1:  Iter=  1 NonCon=     1 RMS=1.44D-05 Max=9.55D-04 NDo=     1
 LinEq1:  Iter=  2 NonCon=     1 RMS=1.09D-05 Max=1.07D-03 NDo=     1
 LinEq1:  Iter=  3 NonCon=     1 RMS=4.92D-06 Max=6.26D-04 NDo=     1
 LinEq1:  Iter=  4 NonCon=     1 RMS=4.06D-06 Max=5.08D-04 NDo=     1
 LinEq1:  Iter=  5 NonCon=     1 RMS=2.66D-06 Max=2.01D-04 NDo=     1
 LinEq1:  Iter=  6 NonCon=     1 RMS=1.52D-06 Max=8.32D-05 NDo=     1
 LinEq1:  Iter=  7 NonCon=     1 RMS=7.58D-07 Max=4.81D-05 NDo=     1
 LinEq1:  Iter=  8 NonCon=     1 RMS=4.11D-07 Max=4.23D-05 NDo=     1
 LinEq1:  Iter=  9 NonCon=     1 RMS=3.08D-07 Max=2.20D-05 NDo=     1
 LinEq1:  Iter= 10 NonCon=     1 RMS=1.66D-07 Max=1.34D-05 NDo=     1
 LinEq1:  Iter= 11 NonCon=     1 RMS=7.52D-08 Max=3.77D-06 NDo=     1
 LinEq1:  Iter= 12 NonCon=     1 RMS=4.01D-08 Max=1.89D-06 NDo=     1
 LinEq1:  Iter= 13 NonCon=     1 RMS=2.93D-08 Max=9.77D-07 NDo=     1
 LinEq1:  Iter= 14 NonCon=     1 RMS=1.75D-08 Max=7.22D-07 NDo=     1
 LinEq1:  Iter= 15 NonCon=     0 RMS=7.17D-09 Max=2.27D-07 NDo=     1
 Linear equations converged to 3.186D-08 3.186D-07 after    15 iterations.
     Accept linear search using points  1 and  2.
     Minimum is close to point  2 DX= -5.82D-03 DF= -3.37D-09 DXR=  5.85D-03 DFR=  3.44D-05 which will be used.
 LinEq1:  Iter=  0 NonCon=     1 RMS=4.20D-07 Max=2.46D-05 NDo=     1
 LinEq1:  Iter=  1 NonCon=     1 RMS=6.28D-07 Max=8.87D-05 NDo=     1
 LinEq1:  Iter=  2 NonCon=     1 RMS=1.96D-07 Max=1.43D-05 NDo=     1
 LinEq1:  Iter=  3 NonCon=     1 RMS=1.15D-07 Max=1.19D-05 NDo=     1
 LinEq1:  Iter=  4 NonCon=     1 RMS=7.97D-08 Max=9.88D-06 NDo=     1
 LinEq1:  Iter=  5 NonCon=     1 RMS=6.27D-08 Max=7.38D-06 NDo=     1
 LinEq1:  Iter=  6 NonCon=     1 RMS=4.58D-08 Max=3.98D-06 NDo=     1
 LinEq1:  Iter=  7 NonCon=     1 RMS=2.36D-08 Max=1.21D-06 NDo=     1
 LinEq1:  Iter=  8 NonCon=     1 RMS=1.33D-08 Max=7.24D-07 NDo=     1
 LinEq1:  Iter=  9 NonCon=     1 RMS=1.06D-08 Max=8.66D-07 NDo=     1
 LinEq1:  Iter= 10 NonCon=     1 RMS=4.92D-09 Max=4.68D-07 NDo=     1
 LinEq1:  Iter= 11 NonCon=     1 RMS=2.64D-09 Max=1.91D-07 NDo=     1
 LinEq1:  Iter= 12 NonCon=     1 RMS=1.96D-09 Max=9.68D-08 NDo=     1
 LinEq1:  Iter= 13 NonCon=     1 RMS=9.57D-10 Max=6.00D-08 NDo=     1
 LinEq1:  Iter= 14 NonCon=     1 RMS=4.59D-10 Max=1.63D-08 NDo=     1
 LinEq1:  Iter= 15 NonCon=     0 RMS=2.64D-10 Max=8.40D-09 NDo=     1
 Linear equations converged to 9.302D-10 9.302D-09 after    15 iterations.
 SCF Done:  E(UB3LYP) =  -1854.56777602     a.u. after    8 cycles
            Convg  =    0.6999D-08                    46 Fock formations.
              S**2 =  0.7567                  -V/T =  2.0051
 <Sx>= 0.0000 <Sy>= 0.0000 <Sz>= 0.5000 <S**2>= 0.7567 S= 0.5033
 <L.S>=  0.00000000000    
 Annihilation of the first spin contaminant:
 S**2 before annihilation     0.7567,   after     0.7500
 DoSCS=F DFT=T ScalE2(SS,OS)=  1.000000  1.000000
 Range of M.O.s used for correlation:     1   685
 NBasis=   685 NAE=    85 NBE=    84 NFC=     0 NFV=     0
 NROrb=    685 NOA=    85 NOB=    84 NVA=   600 NVB=   601

 **** Warning!!: The largest alpha MO coefficient is  0.39608216D+02


 **** Warning!!: The largest beta MO coefficient is  0.38611021D+02

 Symmetrizing basis deriv contribution to polar:
 IMax=3 JMax=2 DiffMx= 0.00D+00
 G2DrvN: will do    43 centers at a time, making    1 passes.
 Calling FoFCou, ICntrl=  3107 FMM=F I1Cent=   0 AccDes= 0.00D+00.
 End of G2Drv F.D. properties file   721 does not exist.
 End of G2Drv F.D. properties file   722 does not exist.
 End of G2Drv F.D. properties file   788 does not exist.
          IDoAtm=111111111111111111111111111111111111111111
          Differentiating once with respect to nuclear coordinates.
 CalDSu exits because no D1Ps are significant.
          There are   129 degrees of freedom in the 1st order CPHF.  IDoFFX=6 NUNeed=     0.
    123 vectors produced by pass  0 Test12= 1.01D-13 1.00D-09 XBig12= 2.60D-01 1.35D-01.
 AX will form   123 AO Fock derivatives at one time.
    123 vectors produced by pass  1 Test12= 1.01D-13 1.00D-09 XBig12= 2.67D-02 1.53D-02.
    123 vectors produced by pass  2 Test12= 1.01D-13 1.00D-09 XBig12= 5.41D-04 1.32D-03.
    123 vectors produced by pass  3 Test12= 1.01D-13 1.00D-09 XBig12= 4.71D-06 1.97D-04.
    123 vectors produced by pass  4 Test12= 1.01D-13 1.00D-09 XBig12= 9.62D-09 8.78D-06.
    112 vectors produced by pass  5 Test12= 1.01D-13 1.00D-09 XBig12= 2.48D-11 3.16D-07.
     43 vectors produced by pass  6 Test12= 1.01D-13 1.00D-09 XBig12= 1.04D-13 1.61D-08.
      4 vectors produced by pass  7 Test12= 1.01D-13 1.00D-09 XBig12= 9.51D-16 1.40D-09.
      4 vectors produced by pass  8 Test12= 1.01D-13 1.00D-09 XBig12= 5.28D-15 5.46D-09.
      4 vectors produced by pass  9 Test12= 1.01D-13 1.00D-09 XBig12= 2.04D-14 7.24D-09.
      4 vectors produced by pass 10 Test12= 1.01D-13 1.00D-09 XBig12= 2.40D-14 1.03D-08.
      4 vectors produced by pass 11 Test12= 1.01D-13 1.00D-09 XBig12= 1.98D-14 1.06D-08.
      4 vectors produced by pass 12 Test12= 1.01D-13 1.00D-09 XBig12= 1.51D-14 8.27D-09.
      4 vectors produced by pass 13 Test12= 1.01D-13 1.00D-09 XBig12= 9.80D-15 9.48D-09.
      2 vectors produced by pass 14 Test12= 1.01D-13 1.00D-09 XBig12= 2.27D-15 2.89D-09.
 InvSVY:  IOpt=1 It=  1 EMax= 5.55D-16
 Solved reduced A of dimension   800 with   129 vectors.
 End of Minotr F.D. properties file   721 does not exist.
 End of Minotr F.D. properties file   722 does not exist.
 End of Minotr F.D. properties file   788 does not exist.

 **********************************************************************

            Population analysis using the SCF density.

 **********************************************************************

 Orbital symmetries:
 Alpha Orbitals:
       Occupied  (A) (A) (A) (A) (A) (A) (A) (A) (A) (A) (A) (A)
                 (A) (A) (A) (A) (A) (A) (A) (A) (A) (A) (A) (A)
                 (A) (A) (A) (A) (A) (A) (A) (A) (A) (A) (A) (A)
                 (A) (A) (A) (A) (A) (A) (A) (A) (A) (A) (A) (A)
                 (A) (A) (A) (A) (A) (A) (A) (A) (A) (A) (A) (A)
                 (A) (A) (A) (A) (A) (A) (A) (A) (A) (A) (A) (A)
                 (A) (A) (A) (A) (A) (A) (A) (A) (A) (A) (A) (A)
                 (A)
       Virtual   (A) (A) (A) (A) (A) (A) (A) (A) (A) (A) (A) (A)
                 (A) (A) (A) (A) (A) (A) (A) (A) (A) (A) (A) (A)
                 (A) (A) (A) (A) (A) (A) (A) (A) (A) (A) (A) (A)
                 (A) (A) (A) (A) (A) (A) (A) (A) (A) (A) (A) (A)
                 (A) (A) (A) (A) (A) (A) (A) (A) (A) (A) (A) (A)
                 (A) (A) (A) (A) (A) (A) (A) (A) (A) (A) (A) (A)
                 (A) (A) (A) (A) (A) (A) (A) (A) (A) (A) (A) (A)
                 (A) (A) (A) (A) (A) (A) (A) (A) (A) (A) (A) (A)
                 (A) (A) (A) (A) (A) (A) (A) (A) (A) (A) (A) (A)
                 (A) (A) (A) (A) (A) (A) (A) (A) (A) (A) (A) (A)
                 (A) (A) (A) (A) (A) (A) (A) (A) (A) (A) (A) (A)
                 (A) (A) (A) (A) (A) (A) (A) (A) (A) (A) (A) (A)
                 (A) (A) (A) (A) (A) (A) (A) (A) (A) (A) (A) (A)
                 (A) (A) (A) (A) (A) (A) (A) (A) (A) (A) (A) (A)
                 (A) (A) (A) (A) (A) (A) (A) (A) (A) (A) (A) (A)
                 (A) (A) (A) (A) (A) (A) (A) (A) (A) (A) (A) (A)
                 (A) (A) (A) (A) (A) (A) (A) (A) (A) (A) (A) (A)
                 (A) (A) (A) (A) (A) (A) (A) (A) (A) (A) (A) (A)
                 (A) (A) (A) (A) (A) (A) (A) (A) (A) (A) (A) (A)
                 (A) (A) (A) (A) (A) (A) (A) (A) (A) (A) (A) (A)
                 (A) (A) (A) (A) (A) (A) (A) (A) (A) (A) (A) (A)
                 (A) (A) (A) (A) (A) (A) (A) (A) (A) (A) (A) (A)
                 (A) (A) (A) (A) (A) (A) (A) (A) (A) (A) (A) (A)
                 (A) (A) (A) (A) (A) (A) (A) (A) (A) (A) (A) (A)
                 (A) (A) (A) (A) (A) (A) (A) (A) (A) (A) (A) (A)
                 (A) (A) (A) (A) (A) (A) (A) (A) (A) (A) (A) (A)
                 (A) (A) (A) (A) (A) (A) (A) (A) (A) (A) (A) (A)
                 (A) (A) (A) (A) (A) (A) (A) (A) (A) (A) (A) (A)
                 (A) (A) (A) (A) (A) (A) (A) (A) (A) (A) (A) (A)
                 (A) (A) (A) (A) (A) (A) (A) (A) (A) (A) (A) (A)
                 (A) (A) (A) (A) (A) (A) (A) (A) (A) (A) (A) (A)
                 (A) (A) (A) (A) (A) (A) (A) (A) (A) (A) (A) (A)
                 (A) (A) (A) (A) (A) (A) (A) (A) (A) (A) (A) (A)
                 (A) (A) (A) (A) (A) (A) (A) (A) (A) (A) (A) (A)
                 (A) (A) (A) (A) (A) (A) (A) (A) (A) (A) (A) (A)
                 (A) (A) (A) (A) (A) (A) (A) (A) (A) (A) (A) (A)
                 (A) (A) (A) (A) (A) (A) (A) (A) (A) (A) (A) (A)
                 (A) (A) (A) (A) (A) (A) (A) (A) (A) (A) (A) (A)
                 (A) (A) (A) (A) (A) (A) (A) (A) (A) (A) (A) (A)
                 (A) (A) (A) (A) (A) (A) (A) (A) (A) (A) (A) (A)
                 (A) (A) (A) (A) (A) (A) (A) (A) (A) (A) (A) (A)
                 (A) (A) (A) (A) (A) (A) (A) (A) (A) (A) (A) (A)
                 (A) (A) (A) (A) (A) (A) (A) (A) (A) (A) (A) (A)
                 (A) (A) (A) (A) (A) (A) (A) (A) (A) (A) (A) (A)
                 (A) (A) (A) (A) (A) (A) (A) (A) (A) (A) (A) (A)
                 (A) (A) (A) (A) (A) (A) (A) (A) (A) (A) (A) (A)
                 (A) (A) (A) (A) (A) (A) (A) (A) (A) (A) (A) (A)
                 (A) (A) (A) (A) (A) (A) (A) (A) (A) (A) (A) (A)
                 (A) (A) (A) (A) (A) (A) (A) (A) (A) (A) (A) (A)
                 (A) (A) (A) (A) (A) (A) (A) (A) (A) (A) (A) (A)
 Beta  Orbitals:
       Occupied  (A) (A) (A) (A) (A) (A) (A) (A) (A) (A) (A) (A)
                 (A) (A) (A) (A) (A) (A) (A) (A) (A) (A) (A) (A)
                 (A) (A) (A) (A) (A) (A) (A) (A) (A) (A) (A) (A)
                 (A) (A) (A) (A) (A) (A) (A) (A) (A) (A) (A) (A)
                 (A) (A) (A) (A) (A) (A) (A) (A) (A) (A) (A) (A)
                 (A) (A) (A) (A) (A) (A) (A) (A) (A) (A) (A) (A)
                 (A) (A) (A) (A) (A) (A) (A) (A) (A) (A) (A) (A)
       Virtual   (A) (A) (A) (A) (A) (A) (A) (A) (A) (A) (A) (A)
                 (A) (A) (A) (A) (A) (A) (A) (A) (A) (A) (A) (A)
                 (A) (A) (A) (A) (A) (A) (A) (A) (A) (A) (A) (A)
                 (A) (A) (A) (A) (A) (A) (A) (A) (A) (A) (A) (A)
                 (A) (A) (A) (A) (A) (A) (A) (A) (A) (A) (A) (A)
                 (A) (A) (A) (A) (A) (A) (A) (A) (A) (A) (A) (A)
                 (A) (A) (A) (A) (A) (A) (A) (A) (A) (A) (A) (A)
                 (A) (A) (A) (A) (A) (A) (A) (A) (A) (A) (A) (A)
                 (A) (A) (A) (A) (A) (A) (A) (A) (A) (A) (A) (A)
                 (A) (A) (A) (A) (A) (A) (A) (A) (A) (A) (A) (A)
                 (A) (A) (A) (A) (A) (A) (A) (A) (A) (A) (A) (A)
                 (A) (A) (A) (A) (A) (A) (A) (A) (A) (A) (A) (A)
                 (A) (A) (A) (A) (A) (A) (A) (A) (A) (A) (A) (A)
                 (A) (A) (A) (A) (A) (A) (A) (A) (A) (A) (A) (A)
                 (A) (A) (A) (A) (A) (A) (A) (A) (A) (A) (A) (A)
                 (A) (A) (A) (A) (A) (A) (A) (A) (A) (A) (A) (A)
                 (A) (A) (A) (A) (A) (A) (A) (A) (A) (A) (A) (A)
                 (A) (A) (A) (A) (A) (A) (A) (A) (A) (A) (A) (A)
                 (A) (A) (A) (A) (A) (A) (A) (A) (A) (A) (A) (A)
                 (A) (A) (A) (A) (A) (A) (A) (A) (A) (A) (A) (A)
                 (A) (A) (A) (A) (A) (A) (A) (A) (A) (A) (A) (A)
                 (A) (A) (A) (A) (A) (A) (A) (A) (A) (A) (A) (A)
                 (A) (A) (A) (A) (A) (A) (A) (A) (A) (A) (A) (A)
                 (A) (A) (A) (A) (A) (A) (A) (A) (A) (A) (A) (A)
                 (A) (A) (A) (A) (A) (A) (A) (A) (A) (A) (A) (A)
                 (A) (A) (A) (A) (A) (A) (A) (A) (A) (A) (A) (A)
                 (A) (A) (A) (A) (A) (A) (A) (A) (A) (A) (A) (A)
                 (A) (A) (A) (A) (A) (A) (A) (A) (A) (A) (A) (A)
                 (A) (A) (A) (A) (A) (A) (A) (A) (A) (A) (A) (A)
                 (A) (A) (A) (A) (A) (A) (A) (A) (A) (A) (A) (A)
                 (A) (A) (A) (A) (A) (A) (A) (A) (A) (A) (A) (A)
                 (A) (A) (A) (A) (A) (A) (A) (A) (A) (A) (A) (A)
                 (A) (A) (A) (A) (A) (A) (A) (A) (A) (A) (A) (A)
                 (A) (A) (A) (A) (A) (A) (A) (A) (A) (A) (A) (A)
                 (A) (A) (A) (A) (A) (A) (A) (A) (A) (A) (A) (A)
                 (A) (A) (A) (A) (A) (A) (A) (A) (A) (A) (A) (A)
                 (A) (A) (A) (A) (A) (A) (A) (A) (A) (A) (A) (A)
                 (A) (A) (A) (A) (A) (A) (A) (A) (A) (A) (A) (A)
                 (A) (A) (A) (A) (A) (A) (A) (A) (A) (A) (A) (A)
                 (A) (A) (A) (A) (A) (A) (A) (A) (A) (A) (A) (A)
                 (A) (A) (A) (A) (A) (A) (A) (A) (A) (A) (A) (A)
                 (A) (A) (A) (A) (A) (A) (A) (A) (A) (A) (A) (A)
                 (A) (A) (A) (A) (A) (A) (A) (A) (A) (A) (A) (A)
                 (A) (A) (A) (A) (A) (A) (A) (A) (A) (A) (A) (A)
                 (A) (A) (A) (A) (A) (A) (A) (A) (A) (A) (A) (A)
                 (A) (A) (A) (A) (A) (A) (A) (A) (A) (A) (A) (A)
                 (A) (A) (A) (A) (A) (A) (A) (A) (A) (A) (A) (A)
                 (A) (A) (A) (A) (A) (A) (A) (A) (A) (A) (A) (A)
                 (A) (A) (A) (A) (A) (A) (A) (A) (A) (A) (A) (A)
                 (A) (A) (A) (A) (A) (A) (A) (A) (A) (A) (A) (A)
                 (A)
 The electronic state is 2-A.
 Alpha  occ. eigenvalues --  -66.16932 -66.16617 -66.16549 -66.16406 -19.16999
 Alpha  occ. eigenvalues --  -19.13820 -19.13638 -19.13260 -19.13218 -10.18607
 Alpha  occ. eigenvalues --  -10.17079 -10.17028 -10.16843 -10.16798 -10.16749
 Alpha  occ. eigenvalues --  -10.16746 -10.16725  -5.30676  -5.30362  -5.30279
 Alpha  occ. eigenvalues --   -5.30142  -3.66792  -3.66614  -3.66454  -3.66443
 Alpha  occ. eigenvalues --   -3.66374  -3.66322  -3.66265  -3.66239  -3.66127
 Alpha  occ. eigenvalues --   -3.66078  -3.66043  -3.65902  -1.00901  -0.99139
 Alpha  occ. eigenvalues --   -0.98785  -0.98444  -0.96567  -0.72116  -0.71381
 Alpha  occ. eigenvalues --   -0.71270  -0.70893  -0.69501  -0.69161  -0.69084
 Alpha  occ. eigenvalues --   -0.68759  -0.57396  -0.54115  -0.53502  -0.48482
 Alpha  occ. eigenvalues --   -0.47961  -0.44442  -0.43710  -0.43278  -0.42966
 Alpha  occ. eigenvalues --   -0.42912  -0.42646  -0.42168  -0.41896  -0.41591
 Alpha  occ. eigenvalues --   -0.41067  -0.40764  -0.40506  -0.40298  -0.40042
 Alpha  occ. eigenvalues --   -0.39930  -0.39774  -0.39422  -0.39161  -0.38792
 Alpha  occ. eigenvalues --   -0.37738  -0.37182  -0.36876  -0.36592  -0.36062
 Alpha  occ. eigenvalues --   -0.34837  -0.34275  -0.32821  -0.31961  -0.31320
 Alpha  occ. eigenvalues --   -0.30614  -0.29939  -0.29732  -0.28600  -0.28190
 Alpha virt. eigenvalues --   -0.01745  -0.00277   0.00027   0.00705   0.01569
 Alpha virt. eigenvalues --    0.02280   0.02554   0.03721   0.03929   0.04343
 Alpha virt. eigenvalues --    0.04572   0.04887   0.05072   0.05456   0.05720
 Alpha virt. eigenvalues --    0.06189   0.06742   0.06878   0.07176   0.07380
 Alpha virt. eigenvalues --    0.07415   0.07967   0.08068   0.08778   0.08899
 Alpha virt. eigenvalues --    0.09018   0.09084   0.09267   0.09513   0.09700
 Alpha virt. eigenvalues --    0.10234   0.10632   0.11061   0.11241   0.11501
 Alpha virt. eigenvalues --    0.11690   0.12097   0.12444   0.12858   0.13066
 Alpha virt. eigenvalues --    0.13455   0.13528   0.13861   0.14207   0.14505
 Alpha virt. eigenvalues --    0.15022   0.15306   0.15680   0.16156   0.16297
 Alpha virt. eigenvalues --    0.16516   0.16966   0.17037   0.17547   0.18209
 Alpha virt. eigenvalues --    0.18343   0.18588   0.19003   0.19104   0.19640
 Alpha virt. eigenvalues --    0.19972   0.20321   0.20652   0.20853   0.21292
 Alpha virt. eigenvalues --    0.21909   0.22065   0.22406   0.22829   0.23073
 Alpha virt. eigenvalues --    0.23534   0.23903   0.24184   0.24369   0.24684
 Alpha virt. eigenvalues --    0.25325   0.25770   0.26295   0.26727   0.27574
 Alpha virt. eigenvalues --    0.27897   0.28400   0.28618   0.29585   0.31446
 Alpha virt. eigenvalues --    0.31722   0.32061   0.33555   0.33815   0.34124
 Alpha virt. eigenvalues --    0.34740   0.35090   0.35239   0.36007   0.36414
 Alpha virt. eigenvalues --    0.36717   0.37101   0.37636   0.38215   0.38353
 Alpha virt. eigenvalues --    0.38460   0.38700   0.39060   0.39388   0.39958
 Alpha virt. eigenvalues --    0.40732   0.41609   0.42391   0.43906   0.44213
 Alpha virt. eigenvalues --    0.44748   0.44941   0.45777   0.45919   0.46161
 Alpha virt. eigenvalues --    0.46971   0.47570   0.47688   0.48536   0.48685
 Alpha virt. eigenvalues --    0.49670   0.51376   0.51569   0.52595   0.54410
 Alpha virt. eigenvalues --    0.55383   0.57386   0.58791   0.59533   0.60081
 Alpha virt. eigenvalues --    0.60455   0.60907   0.61090   0.61815   0.62833
 Alpha virt. eigenvalues --    0.64707   0.65173   0.65845   0.66563   0.67379
 Alpha virt. eigenvalues --    0.68503   0.69009   0.70666   0.71232   0.71522
 Alpha virt. eigenvalues --    0.71709   0.72078   0.72934   0.73403   0.75258
 Alpha virt. eigenvalues --    0.75487   0.75557   0.76550   0.77486   0.77641
 Alpha virt. eigenvalues --    0.77944   0.78005   0.78561   0.78999   0.79275
 Alpha virt. eigenvalues --    0.79794   0.80729   0.80820   0.81284   0.81756
 Alpha virt. eigenvalues --    0.82148   0.82506   0.82997   0.83614   0.83724
 Alpha virt. eigenvalues --    0.84476   0.84582   0.85264   0.85470   0.86035
 Alpha virt. eigenvalues --    0.86652   0.86875   0.87153   0.87525   0.87749
 Alpha virt. eigenvalues --    0.88299   0.88956   0.89372   0.90165   0.90389
 Alpha virt. eigenvalues --    0.92626   0.92815   0.93317   0.93851   0.94809
 Alpha virt. eigenvalues --    0.95681   0.95941   0.96371   0.96811   0.97955
 Alpha virt. eigenvalues --    0.99343   1.00301   1.00841   1.01273   1.01912
 Alpha virt. eigenvalues --    1.03895   1.04692   1.05334   1.05798   1.06605
 Alpha virt. eigenvalues --    1.07233   1.07907   1.09710   1.10195   1.10581
 Alpha virt. eigenvalues --    1.12293   1.13420   1.13749   1.14668   1.15573
 Alpha virt. eigenvalues --    1.15872   1.16691   1.18317   1.19109   1.19879
 Alpha virt. eigenvalues --    1.20591   1.21549   1.22003   1.23308   1.23779
 Alpha virt. eigenvalues --    1.24530   1.25809   1.26047   1.27707   1.28434
 Alpha virt. eigenvalues --    1.29035   1.29142   1.30602   1.32334   1.32969
 Alpha virt. eigenvalues --    1.33651   1.34716   1.35344   1.36296   1.37319
 Alpha virt. eigenvalues --    1.38298   1.39182   1.39775   1.40941   1.41081
 Alpha virt. eigenvalues --    1.41988   1.42336   1.43746   1.44506   1.44941
 Alpha virt. eigenvalues --    1.45592   1.47247   1.48567   1.49104   1.49837
 Alpha virt. eigenvalues --    1.51313   1.52055   1.52884   1.53757   1.54601
 Alpha virt. eigenvalues --    1.55018   1.55832   1.56664   1.56959   1.57294
 Alpha virt. eigenvalues --    1.57455   1.58607   1.59335   1.60812   1.61840
 Alpha virt. eigenvalues --    1.62070   1.62595   1.63018   1.63509   1.64201
 Alpha virt. eigenvalues --    1.66363   1.66891   1.68334   1.68856   1.69565
 Alpha virt. eigenvalues --    1.70551   1.72074   1.73162   1.74284   1.76351
 Alpha virt. eigenvalues --    1.77053   1.77913   1.79007   1.79819   1.80080
 Alpha virt. eigenvalues --    1.80579   1.81722   1.82309   1.85121   1.85472
 Alpha virt. eigenvalues --    1.87440   1.88295   1.88349   1.89889   1.90068
 Alpha virt. eigenvalues --    1.90251   1.91888   1.92171   1.93657   1.94311
 Alpha virt. eigenvalues --    1.94456   1.95190   1.95656   1.95823   1.96339
 Alpha virt. eigenvalues --    1.96665   1.96872   1.97222   1.97821   1.98252
 Alpha virt. eigenvalues --    1.98716   1.99097   1.99415   2.00985   2.02250
 Alpha virt. eigenvalues --    2.03345   2.05048   2.06139   2.07216   2.08139
 Alpha virt. eigenvalues --    2.08412   2.08821   2.10726   2.11265   2.13637
 Alpha virt. eigenvalues --    2.16769   2.18159   2.18472   2.19733   2.20924
 Alpha virt. eigenvalues --    2.23242   2.23446   2.28274   2.32415   2.35259
 Alpha virt. eigenvalues --    2.35812   2.37286   2.38387   2.39708   2.40581
 Alpha virt. eigenvalues --    2.42312   2.43511   2.45166   2.46166   2.46426
 Alpha virt. eigenvalues --    2.47394   2.48566   2.49590   2.49664   2.50948
 Alpha virt. eigenvalues --    2.51489   2.52032   2.52813   2.53014   2.53454
 Alpha virt. eigenvalues --    2.55186   2.55292   2.57784   2.58785   2.59805
 Alpha virt. eigenvalues --    2.61773   2.63754   2.64209   2.64967   2.66146
 Alpha virt. eigenvalues --    2.66869   2.67911   2.72198   2.78934   2.79105
 Alpha virt. eigenvalues --    2.79441   2.80151   2.85480   2.85930   2.87302
 Alpha virt. eigenvalues --    2.87881   2.88468   2.88973   2.89036   2.89563
 Alpha virt. eigenvalues --    2.90301   2.91554   2.92149   2.92850   2.96434
 Alpha virt. eigenvalues --    2.96787   2.97484   2.97928   2.98240   2.98618
 Alpha virt. eigenvalues --    2.99005   2.99167   2.99463   2.99682   3.00005
 Alpha virt. eigenvalues --    3.00090   3.00348   3.00563   3.01256   3.01431
 Alpha virt. eigenvalues --    3.01875   3.02281   3.03420   3.06195   3.07786
 Alpha virt. eigenvalues --    3.09699   3.11000   3.15132   3.16940   3.25013
 Alpha virt. eigenvalues --    3.30612   3.31221   3.33108   3.37294   3.38661
 Alpha virt. eigenvalues --    3.38725   3.39039   3.46584   3.49149   3.51106
 Alpha virt. eigenvalues --    3.51798   3.52803   3.54005   3.54435   3.55078
 Alpha virt. eigenvalues --    3.55421   3.55719   3.56551   3.57414   3.58125
 Alpha virt. eigenvalues --    3.61619   3.62210   3.63432   3.63770   3.64305
 Alpha virt. eigenvalues --    3.64567   3.64760   3.65017   3.66157   3.66380
 Alpha virt. eigenvalues --    3.66559   3.67444   3.68314   3.68618   3.68701
 Alpha virt. eigenvalues --    3.69138   3.69668   3.69747   3.75127   3.85769
 Alpha virt. eigenvalues --    3.90672   3.92311   3.93706   3.96391   3.96675
 Alpha virt. eigenvalues --    3.96817   3.97575   3.97849   3.98368   3.98493
 Alpha virt. eigenvalues --    3.98899   3.99873   4.00069   4.01376   4.04300
 Alpha virt. eigenvalues --    4.06223   4.09643   4.11240   4.14611   4.18453
 Alpha virt. eigenvalues --    4.24329   4.27894   4.31170   4.32867   4.33872
 Alpha virt. eigenvalues --    4.34688   4.36221   4.37325   4.37809   4.39108
 Alpha virt. eigenvalues --    4.41476   4.42670   4.42988   4.45097   4.46767
 Alpha virt. eigenvalues --    4.50033   4.52184   4.52631   4.53342   4.53356
 Alpha virt. eigenvalues --    4.53969   4.54248   4.54858   4.55335   4.55599
 Alpha virt. eigenvalues --    4.55821   4.57330   4.60865   4.61645   4.63896
 Alpha virt. eigenvalues --    4.65082   4.66199   4.67040   4.69461   4.72366
 Alpha virt. eigenvalues --    4.72838   4.73182   4.73892   4.75740   4.76291
 Alpha virt. eigenvalues --    4.76517   4.77233   4.78030   4.79899   4.80601
 Alpha virt. eigenvalues --    4.81445   4.81516   4.83419   4.85148   4.85324
 Alpha virt. eigenvalues --    4.86486   4.87547   4.88203   4.89329   4.89558
 Alpha virt. eigenvalues --    4.89988   4.90868   4.92454   4.93075   4.94028
 Alpha virt. eigenvalues --    4.94795   4.96972   4.97148   4.99966   5.01762
 Alpha virt. eigenvalues --    5.04879   5.06957   5.07293   5.08540   5.09872
 Alpha virt. eigenvalues --    5.10665   5.11773   5.12988   5.16614   5.17475
 Alpha virt. eigenvalues --    5.26620   5.28529   5.29241   5.30270   5.30575
 Alpha virt. eigenvalues --    5.31114   5.32261   5.32961   5.34640   5.35335
 Alpha virt. eigenvalues --    5.36155   5.38766   5.41837   5.44556   5.45476
 Alpha virt. eigenvalues --    5.46937   5.48139   5.49749   5.50785   5.54336
 Alpha virt. eigenvalues --    5.55416   5.57986   5.58975   5.59908   5.61887
 Alpha virt. eigenvalues --    5.65913   5.71410   5.83837   5.95709   5.99021
 Alpha virt. eigenvalues --    6.10598   6.12391   6.71143   7.12389   7.13537
 Alpha virt. eigenvalues --    7.16504   7.23099  11.75812  11.80947  11.82298
 Alpha virt. eigenvalues --   11.88851  11.94871  12.03468  12.15632  12.33783
 Alpha virt. eigenvalues --   12.95086  13.55694  13.77279  13.89681  13.99927
  Beta  occ. eigenvalues --  -66.16935 -66.16617 -66.16549 -66.16406 -19.15169
  Beta  occ. eigenvalues --  -19.13826 -19.13604 -19.13261 -19.13217 -10.18018
  Beta  occ. eigenvalues --  -10.17079 -10.17027 -10.16843 -10.16800 -10.16749
  Beta  occ. eigenvalues --  -10.16746 -10.16724  -5.30680  -5.30362  -5.30279
  Beta  occ. eigenvalues --   -5.30142  -3.66792  -3.66620  -3.66455  -3.66447
  Beta  occ. eigenvalues --   -3.66374  -3.66322  -3.66265  -3.66239  -3.66127
  Beta  occ. eigenvalues --   -3.66078  -3.66043  -3.65902  -1.00857  -0.98838
  Beta  occ. eigenvalues --   -0.98704  -0.96592  -0.93944  -0.71717  -0.71271
  Beta  occ. eigenvalues --   -0.70975  -0.70782  -0.69264  -0.69083  -0.68819
  Beta  occ. eigenvalues --   -0.68433  -0.57333  -0.54089  -0.53445  -0.48305
  Beta  occ. eigenvalues --   -0.45264  -0.43764  -0.43373  -0.43192  -0.42808
  Beta  occ. eigenvalues --   -0.42560  -0.42293  -0.41841  -0.41604  -0.41263
  Beta  occ. eigenvalues --   -0.41027  -0.40637  -0.40284  -0.40142  -0.39916
  Beta  occ. eigenvalues --   -0.39792  -0.39510  -0.39289  -0.39046  -0.38702
  Beta  occ. eigenvalues --   -0.37447  -0.37050  -0.36702  -0.36291  -0.35835
  Beta  occ. eigenvalues --   -0.34803  -0.34255  -0.32557  -0.31821  -0.30449
  Beta  occ. eigenvalues --   -0.29779  -0.29591  -0.28948  -0.28438
  Beta virt. eigenvalues --   -0.14231  -0.01726  -0.00247   0.00058   0.00739
  Beta virt. eigenvalues --    0.01592   0.02311   0.02570   0.03793   0.03983
  Beta virt. eigenvalues --    0.04367   0.04580   0.04935   0.05119   0.05487
  Beta virt. eigenvalues --    0.05751   0.06213   0.06770   0.06960   0.07186
  Beta virt. eigenvalues --    0.07401   0.07449   0.07999   0.08085   0.08799
  Beta virt. eigenvalues --    0.08919   0.09027   0.09118   0.09312   0.09589
  Beta virt. eigenvalues --    0.09738   0.10263   0.10671   0.11070   0.11276
  Beta virt. eigenvalues --    0.11515   0.11765   0.12135   0.12508   0.12905
  Beta virt. eigenvalues --    0.13090   0.13480   0.13547   0.13903   0.14238
  Beta virt. eigenvalues --    0.14543   0.15092   0.15318   0.15691   0.16191
  Beta virt. eigenvalues --    0.16345   0.16531   0.17014   0.17090   0.17585
  Beta virt. eigenvalues --    0.18243   0.18410   0.18626   0.19128   0.19191
  Beta virt. eigenvalues --    0.19698   0.20193   0.20390   0.20690   0.20873
  Beta virt. eigenvalues --    0.21327   0.22096   0.22102   0.22454   0.22987
  Beta virt. eigenvalues --    0.23158   0.23570   0.23947   0.24256   0.24461
  Beta virt. eigenvalues --    0.24835   0.25569   0.25909   0.26367   0.26748
  Beta virt. eigenvalues --    0.27689   0.27985   0.28573   0.28812   0.29904
  Beta virt. eigenvalues --    0.31563   0.31797   0.32074   0.33585   0.33864
  Beta virt. eigenvalues --    0.34173   0.34818   0.35183   0.35255   0.36061
  Beta virt. eigenvalues --    0.36441   0.36835   0.37147   0.37686   0.38243
  Beta virt. eigenvalues --    0.38408   0.38506   0.38901   0.39172   0.39940
  Beta virt. eigenvalues --    0.40086   0.40986   0.41665   0.42579   0.44020
  Beta virt. eigenvalues --    0.44229   0.44771   0.44971   0.45891   0.45938
  Beta virt. eigenvalues --    0.46350   0.47013   0.47612   0.47711   0.48557
  Beta virt. eigenvalues --    0.48881   0.49735   0.51422   0.51625   0.52728
  Beta virt. eigenvalues --    0.54458   0.55462   0.57457   0.58844   0.59604
  Beta virt. eigenvalues --    0.60100   0.60526   0.61036   0.61188   0.61872
  Beta virt. eigenvalues --    0.62847   0.64727   0.65228   0.65893   0.66609
  Beta virt. eigenvalues --    0.67844   0.68590   0.69309   0.70732   0.71325
  Beta virt. eigenvalues --    0.71559   0.71767   0.72134   0.73004   0.73468
  Beta virt. eigenvalues --    0.75318   0.75525   0.75645   0.76632   0.77513
  Beta virt. eigenvalues --    0.77718   0.78034   0.78097   0.78630   0.79188
  Beta virt. eigenvalues --    0.79342   0.79808   0.80794   0.80871   0.81403
  Beta virt. eigenvalues --    0.81790   0.82238   0.82609   0.83062   0.83657
  Beta virt. eigenvalues --    0.83825   0.84511   0.84594   0.85481   0.85549
  Beta virt. eigenvalues --    0.86101   0.86697   0.86966   0.87185   0.87567
  Beta virt. eigenvalues --    0.87795   0.88347   0.89054   0.89421   0.90207
  Beta virt. eigenvalues --    0.90422   0.92803   0.93036   0.93557   0.94257
  Beta virt. eigenvalues --    0.95177   0.95745   0.96027   0.96699   0.97101
  Beta virt. eigenvalues --    0.98224   0.99587   1.00502   1.01284   1.01453
  Beta virt. eigenvalues --    1.02302   1.03927   1.04835   1.05432   1.05923
  Beta virt. eigenvalues --    1.06683   1.07291   1.08090   1.09917   1.10481
  Beta virt. eigenvalues --    1.10661   1.12536   1.13609   1.14193   1.15437
  Beta virt. eigenvalues --    1.16032   1.16292   1.17411   1.18451   1.19449
  Beta virt. eigenvalues --    1.20279   1.21240   1.21858   1.22370   1.23422
  Beta virt. eigenvalues --    1.23845   1.25057   1.25927   1.26163   1.27791
  Beta virt. eigenvalues --    1.28676   1.29253   1.29851   1.31057   1.32387
  Beta virt. eigenvalues --    1.33248   1.33802   1.34866   1.35429   1.36327
  Beta virt. eigenvalues --    1.37384   1.38355   1.39317   1.39824   1.40985
  Beta virt. eigenvalues --    1.41135   1.42074   1.42375   1.44238   1.44601
  Beta virt. eigenvalues --    1.45179   1.45813   1.47794   1.48586   1.49186
  Beta virt. eigenvalues --    1.49948   1.51386   1.52179   1.53025   1.53881
  Beta virt. eigenvalues --    1.54721   1.55079   1.55866   1.56702   1.56996
  Beta virt. eigenvalues --    1.57352   1.57532   1.58676   1.59357   1.60944
  Beta virt. eigenvalues --    1.61943   1.62150   1.62817   1.63087   1.63648
  Beta virt. eigenvalues --    1.64310   1.66455   1.66924   1.68349   1.68899
  Beta virt. eigenvalues --    1.69786   1.70617   1.72130   1.73325   1.74393
  Beta virt. eigenvalues --    1.76426   1.77107   1.78002   1.79047   1.79894
  Beta virt. eigenvalues --    1.80151   1.80627   1.81777   1.82363   1.85170
  Beta virt. eigenvalues --    1.85517   1.87502   1.88328   1.88372   1.89933
  Beta virt. eigenvalues --    1.90135   1.90305   1.91900   1.92270   1.93846
  Beta virt. eigenvalues --    1.94328   1.94477   1.95242   1.95666   1.95830
  Beta virt. eigenvalues --    1.96367   1.96723   1.96903   1.97230   1.97843
  Beta virt. eigenvalues --    1.98289   1.98758   1.99134   1.99451   2.01123
  Beta virt. eigenvalues --    2.02381   2.03373   2.05115   2.06197   2.07506
  Beta virt. eigenvalues --    2.08189   2.08510   2.08885   2.10883   2.11296
  Beta virt. eigenvalues --    2.13862   2.16978   2.18197   2.18485   2.19816
  Beta virt. eigenvalues --    2.21315   2.23325   2.23476   2.28320   2.32445
  Beta virt. eigenvalues --    2.35351   2.35833   2.37312   2.38608   2.39736
  Beta virt. eigenvalues --    2.40717   2.42326   2.43645   2.45171   2.46216
  Beta virt. eigenvalues --    2.46437   2.47529   2.48573   2.49665   2.49673
  Beta virt. eigenvalues --    2.50950   2.51479   2.52013   2.52858   2.53023
  Beta virt. eigenvalues --    2.53400   2.55197   2.55324   2.57798   2.58806
  Beta virt. eigenvalues --    2.59840   2.61793   2.63821   2.64245   2.64991
  Beta virt. eigenvalues --    2.66256   2.66909   2.68359   2.72254   2.78941
  Beta virt. eigenvalues --    2.79108   2.79444   2.80437   2.85614   2.86195
  Beta virt. eigenvalues --    2.87313   2.87897   2.88501   2.88983   2.89090
  Beta virt. eigenvalues --    2.89573   2.90349   2.91557   2.92205   2.92869
[...]
 00763,0.00001172,-0.00001847,0.00001673,0.00000392,0.00001139,-0.00007
 048,-0.00000652,-0.00001278,-0.00001166,0.00001946,0.00000798,0.000003
 77,-0.00001642,-0.00000445,0.00000294,0.00000005,0.00000071,0.00016686
 ,0.00036909,0.00018109,-0.00000084,-0.00000830,0.00000910,0.00011832,0
 .00005355,-0.00007681,-0.00005306,-0.00002321,0.00003923,0.00007617,0.
 00007246,0.00008748,-0.00001382,-0.00002539,0.00010476,0.00003304,0.00
 001530,-0.00002991,-0.00006022,0.00007703,0.00008192,-0.00091161,-0.00
 157574,0.00049946,-0.00036866,0.00007858,0.00031606,0.00017135,-0.0004
 0031,-0.00083216,-0.00013231,0.00015922,0.00017630,0.01060535,0.010905
 87,-0.03650246,-0.00467766,-0.00642419,-0.00158587,-0.00245847,-0.0005
 5405,0.03857600,-0.00011272,-0.00003629,0.00035086,-0.00036965,-0.0007
 6799,-0.00036842,-0.00036761,0.00008314,-0.00020797,-0.00024640,-0.000
 27127,0.00008142,0.00021023,0.00030779,-0.00048129,0.00033808,-0.00000
 990,0.00088513,-0.00190676,0.00005656,-0.00085945,0.00041361,0.0001307
 3,0.00005332,-0.00014340,-0.00000889,-0.00003544,0.00000526,-0.0000183
 5,0.00000359,-0.00010800,0.00013162,0.00013303,-0.00003314,-0.00004279
 ,0.00008901,-0.00000113,0.00000214,-0.00001121,-0.00000403,0.00000048,
 -0.00001127,0.00001401,0.00000389,0.00002960,-0.00005576,-0.00001619,-
 0.00000744,-0.00000216,-0.00000820,0.00001519,-0.00000298,0.00000598,-
 0.00001683,0.00000695,0.00000183,-0.00000086,-0.00004558,-0.00001648,-
 0.00000580,-0.00000770,0.00001404,-0.00000209,0.00000058,-0.00001445,0
 .00000075,0.00001151,0.00000288,0.00000120,-0.00005380,-0.00001757,-0.
 00014734,-0.00000466,-0.00000021,0.00001511,-0.00001062,-0.00000983,0.
 00001730,0.00003033,0.00001416,-0.00004063,-0.00012058,0.00019999,-0.0
 0002776,0.00008186,0.00007884,-0.00008827,-0.00009925,-0.00003860,0.00
 002926,0.00012545,-0.00022110,-0.00018630,0.00039948,-0.00001847,-0.00
 012801,0.00029656,0.00008245,0.00000855,-0.00000045,0.00018821,0.00023
 210,0.00019067,-0.00013228,-0.00027429,-0.06331242,0.04776604,0.055946
 76,-0.00831283,0.01772080,0.02277942,0.00548848,-0.01181545,-0.0154894
 8,0.06758716,-0.00095947,0.00025363,-0.00119420,0.00076671,0.00057751,
 -0.00119393,-0.00012163,0.00015785,-0.00011323,-0.00016438,0.00000499,
 -0.00002345,0.00070707,-0.00014511,-0.00024319,-0.00020125,-0.00057030
 ,0.00010487,-0.00340412,0.00567987,0.00769290,0.00019234,-0.00015063,0
 .00013742,-0.00005979,-0.00012755,0.00005529,-0.00006001,0.00000242,-0
 .00004199,0.00010554,0.00012048,0.00003301,-0.00010945,0.00002060,0.00
 004365,-0.00002263,0.00000127,-0.00002824,-0.00000029,-0.00000406,-0.0
 0000123,0.00001378,0.00000659,0.00002196,-0.00002343,0.00001744,-0.000
 02525,0.00000206,-0.00000007,0.00000141,-0.00000400,0.00000254,-0.0000
 1006,0.00000103,-0.00000025,0.00001048,-0.00002569,0.00002489,-0.00000
 575,-0.00000649,0.00000931,-0.00000177,0.00000050,0.00000073,-0.000000
 18,0.00000751,-0.00000914,-0.00000227,0.00003357,0.00008080,-0.0000206
 5,-0.00000025,-0.00000474,0.00000784,0.00002056,0.00001312,-0.00001239
 ,-0.00000224,0.00000397,-0.00000504,-0.00002507,-0.00000466,0.00008181
 ,0.00004369,0.00001186,-0.00000072,0.00004917,0.00001488,-0.00002952,-
 0.00008287,-0.00009061,-0.00012480,0.00012406,-0.00108214,0.00227685,-
 0.00016459,0.00054222,0.00066865,0.00011809,0.00003679,0.00003959,-0.0
 0001708,-0.00011844,-0.00014006,0.04580214,-0.13736177,-0.11709753,0.0
 0224360,-0.00719870,-0.00729942,0.00842645,-0.01563533,-0.01871883,-0.
 05325054,0.15496340,-0.00076197,0.00124403,0.00222860,-0.00070185,0.00
 117475,0.00221052,-0.00003890,-0.00013104,0.00023199,-0.00000635,-0.00
 015820,0.00027800,-0.00044094,0.00019919,-0.00082201,0.00046519,0.0004
 7599,-0.00057290,0.00671771,-0.01703656,-0.01272121,-0.00000243,0.0003
 2846,-0.00031855,-0.00000264,0.00002549,-0.00012641,0.00006151,-0.0000
 0474,0.00001875,-0.00011401,0.00004196,0.00033072,0.00001270,-0.000031
 27,0.00010112,0.00000395,0.00000507,0.00000470,0.00001659,0.00001136,-
 0.00000953,0.00001413,-0.00001525,0.00003228,-0.00000104,-0.00004725,0
 .00006183,-0.00000604,-0.00000345,0.00000915,0.00000385,0.00000235,0.0
 0000558,0.00000061,0.00000549,-0.00000563,0.00000404,-0.00004943,0.000
 02599,0.00000667,-0.00000322,-0.00000117,-0.00000318,-0.00001152,-0.00
 000047,-0.00000628,0.00002388,0.00001434,-0.00002844,-0.00004163,0.000
 07481,-0.00001660,0.00000006,-0.00001324,-0.00001146,-0.00000207,0.000
 00885,-0.00000442,-0.00002173,0.00002493,-0.00000497,-0.00014414,-0.00
 011685,-0.00009278,-0.00004106,0.00004177,-0.00002155,0.00000441,0.000
 00001,-0.00002501,0.00007884,0.00026288,-0.00042781,0.00319204,-0.0036
 2544,0.00053293,-0.00102739,-0.00117061,-0.00023246,0.00010053,0.00036
 054,0.00009120,0.00014123,0.00032151,0.06042748,-0.13155712,-0.1852547
 6,-0.00261905,0.00612999,0.00517165,-0.00060715,0.00207781,-0.00012350
 ,-0.06232686,0.13512323,0.19301385,0.00071041,0.00044500,-0.00032790,0
 .00018310,0.00047102,0.00007649,-0.00065797,0.00025443,0.00000807,-0.0
 0123886,0.00178635,0.00132717,-0.00061559,-0.00415702,0.00070451,0.000
 36568,-0.00060003,-0.00007787,-0.00059816,-0.00023483,-0.00016116,0.00
 118182,0.00041718,-0.00069092,-0.03773063,0.03645331,0.00862372,0.0041
 5119,-0.00109222,-0.00104237,0.00140588,-0.00149955,-0.00015261,0.0001
 5507,0.00048724,-0.00017720,-0.00007481,-0.00008680,-0.00000823,0.0000
 5164,0.00007898,0.00016625,-0.00000469,0.00000872,-0.00010070,-0.00010
 418,-0.00001561,0.00011744,-0.00000329,-0.00001268,0.00003702,0.000009
 67,-0.00001125,-0.00001862,-0.00001618,0.00001264,0.00003312,-0.000222
 04,-0.00013299,0.00000388,-0.00000185,0.00006813,-0.00004579,-0.000042
 54,-0.00005292,0.00007422,0.00010968,0.00012817,0.00013164,-0.00005597
 ,0.00006384,0.00002299,-0.00002558,-0.00000068,0.00000980,0.00001850,0
 .00000707,-0.00000969,0.00000681,-0.00000629,-0.00000014,-0.00004233,0
 .00008077,-0.00000100,0.00001958,0.00000628,0.00001335,-0.00002722,0.0
 0000502,-0.00001254,0.00001080,-0.00002957,0.00001090,0.00007147,0.000
 01143,0.00002592,-0.00000462,-0.00000064,-0.00000337,-0.00000314,0.000
 01756,0.00001068,0.00001017,-0.00001924,-0.00001543,0.00006726,0.00002
 146,0.00000754,0.00001262,-0.00000778,0.00000500,-0.00000768,0.0000390
 9,-0.00000573,-0.00002428,-0.00002008,-0.00000029,0.26722768,-0.000635
 03,0.00014421,0.00049548,-0.00012068,-0.00005799,-0.00003209,-0.000026
 21,0.00006426,0.00001164,0.00068041,-0.00005738,-0.00007624,-0.0018676
 9,0.00229202,-0.00121884,0.00008050,0.00006326,0.00001892,0.00059582,-
 0.00022515,0.00022766,-0.00003202,-0.00038963,-0.00009157,0.04770395,-
 0.04670673,-0.01001270,-0.00295776,0.00186807,0.00081048,-0.00162066,0
 .00158361,0.00115173,0.00010379,-0.00008558,0.00008402,0.00011263,-0.0
 0010215,0.00030255,-0.00002690,-0.00001878,-0.00006345,0.00011965,-0.0
 0009324,0.00000375,-0.00000020,0.00006143,0.00002830,0.00000458,0.0000
 0174,-0.00000917,0.00000302,-0.00001234,-0.00000467,-0.00001092,0.0000
 0423,0.00001833,-0.00003195,0.00002140,0.00006566,-0.00000961,0.000032
 35,-0.00006527,-0.00003791,0.00001598,0.00001742,0.00005724,-0.0000078
 4,0.00002680,-0.00001776,-0.00000887,0.00000112,-0.00000146,0.00000197
 ,0.00000007,-0.00000008,-0.00000223,0.00000149,0.00000338,0.00000078,-
 0.00000131,-0.00001449,-0.00000905,-0.00000937,0.00000104,-0.00000151,
 -0.00000264,-0.00000295,0.00000244,0.00000088,0.00000208,-0.00000135,0
 .00000612,-0.00007674,0.00004370,-0.00002002,0.00000410,-0.00001207,-0
 .00000735,0.00000207,0.00000446,-0.00000290,-0.00000899,0.00002156,0.0
 0002024,-0.00003550,0.00001900,-0.00003809,-0.00000332,0.00000735,-0.0
 0000958,0.00000165,0.00000137,0.00000493,0.00000318,-0.00000269,0.0000
 1141,0.21830466,0.23489106,0.00082587,-0.00062885,0.00054776,0.0001805
 6,-0.00000601,0.00016065,0.00068626,-0.00003323,0.00034913,0.00219775,
 0.00002693,0.00022489,-0.00211556,0.00219765,-0.00170335,-0.00040215,0
 .00014339,-0.00034859,-0.00056826,0.00029146,-0.00040948,-0.00143661,-
 0.00123549,-0.00035797,0.01004959,-0.00849225,0.00008736,-0.00118031,0
 .00055491,0.00017298,0.00007651,0.00024426,0.00116010,-0.00027234,-0.0
 0013670,0.00002064,0.00047863,0.00002138,0.00059993,0.00013000,-0.0001
 8032,-0.00018702,0.00021923,-0.00017383,-0.00003959,0.00009906,0.00019
 936,-0.00000235,0.00004267,0.00002215,-0.00005591,0.00000175,-0.000049
 68,0.00007991,-0.00001509,-0.00000882,0.00003995,-0.00000511,0.0002497
 8,-0.00005605,0.00003161,-0.00016655,-0.00002507,0.00003920,0.00003300
 ,0.00010813,0.00008535,0.00006261,0.00009113,0.00006405,-0.00001990,0.
 00004702,0.00001906,-0.00000082,-0.00001007,-0.00000009,0.00000532,-0.
 00000451,-0.00002199,-0.00000233,0.00002538,0.00006145,0.00000520,0.00
 007401,0.00000711,0.00000654,-0.00000440,-0.00000224,-0.00000316,0.000
 01997,-0.00000477,-0.00002452,0.00000668,0.00007571,-0.00004991,0.0000
 6183,-0.00002336,0.00001220,0.00003018,-0.00000669,0.00000933,-0.00000
 637,0.00001968,-0.00001872,-0.00001533,0.00006712,-0.00007558,0.000086
 27,-0.00000029,-0.00001008,0.00003606,0.00000048,-0.00000946,-0.000017
 36,0.00001350,0.00002592,0.00001617,-0.10249840,-0.08901637,0.04464009
 ,-0.00031256,-0.00064222,0.00015718,-0.00004094,-0.00035947,-0.0000447
 5,0.00079537,-0.00020414,0.00000137,0.00097019,-0.00173153,-0.00182513
 ,0.00137309,0.00390339,0.00018876,-0.00051955,0.00050256,0.00000644,0.
 00016898,0.00032529,0.00005411,-0.00183956,-0.00092142,0.00111925,0.00
 451935,-0.00232280,-0.00108580,-0.00129312,0.00037491,0.00036456,-0.00
 023928,0.00053452,-0.00004242,-0.00012923,-0.00035235,0.00003284,-0.00
 007314,-0.00004605,-0.00009577,-0.00012229,0.00000637,-0.00007851,0.00
 001758,0.00003658,0.00009433,0.00017823,0.00008562,-0.00015716,0.00000
 251,0.00002509,-0.00006963,-0.00001213,0.00001159,-0.00000009,0.000003
 23,-0.00001056,-0.00001664,0.00038198,0.00036927,0.00006662,0.00002176
 ,-0.00010430,0.00003976,0.00004050,0.00011463,-0.00011955,-0.00018503,
 -0.00028974,-0.00024900,0.00007837,-0.00005177,-0.00001726,0.00002841,
 0.00000023,-0.00001207,-0.00001387,-0.00000215,0.00000730,-0.00001184,
 0.00000262,0.00000458,0.00006222,-0.00006374,0.00002622,-0.00001323,0.
 00000002,-0.00001131,0.00002581,-0.00000623,0.00001609,-0.00001362,0.0
 0002051,-0.00002281,-0.00001924,-0.00003717,-0.00002680,0.00000098,0.0
 0000634,0.00000633,-0.00000045,-0.00001107,-0.00000534,-0.00000005,0.0
 0000784,0.00000517,-0.00003139,-0.00003795,0.00001420,-0.00000470,0.00
 000118,0.00000086,0.00000322,-0.00002785,0.00000298,0.00001251,0.00002
 216,-0.00001191,-0.25103942,-0.22917465,0.09851402,0.24760243,-0.00202
 027,0.00046042,0.00079053,-0.00053814,-0.00057143,-0.00008638,-0.00002
 880,-0.00068232,-0.00002279,-0.00236309,-0.00281795,0.00132226,0.00264
 758,0.00072776,-0.00392327,0.00026408,0.00062662,0.00008932,0.00164203
 ,-0.00020123,0.00016595,0.00059956,0.00324937,0.00018102,0.00069675,-0
 .00234489,0.00089317,0.00012531,0.00051990,0.00002385,-0.00036911,0.00
 017251,0.00029992,-0.00013497,-0.00015898,0.00059322,-0.00008664,-0.00
 000730,-0.00012218,-0.00006459,0.00002031,-0.00001651,0.00008198,0.000
 05052,0.00020845,-0.00010065,-0.00048924,-0.00002881,-0.00002902,-0.00
 003550,0.00012601,0.00000811,0.00002839,0.00003693,0.00004904,-0.00000
 227,-0.00015318,0.00015256,-0.00016739,-0.00031334,0.00004877,-0.00028
 874,0.00037180,0.00022535,-0.00011415,-0.00011019,-0.00031284,-0.00000
 648,-0.00018760,-0.00003599,-0.00007146,0.00001126,0.00000786,0.000004
 42,-0.00000311,-0.00002410,-0.00001859,0.00000774,0.00000737,0.0000107
 0,-0.00000461,-0.00002138,-0.00007624,-0.00004762,-0.00002909,-0.00002
 000,-0.00002021,0.00000392,0.00000017,0.00000715,0.00000819,0.00001973
 ,0.00003638,-0.00019555,0.00006445,0.00000899,0.00001566,-0.00001271,-
 0.00000306,0.00001426,-0.00002016,-0.00001862,-0.00003663,0.00004704,0
 .00003609,-0.00022042,0.00003944,-0.00006797,-0.00004805,0.00004367,-0
 .00002933,0.00002190,-0.00005106,0.00001987,0.00005768,0.00000896,0.00
 006616,-0.20948663,-0.22696175,0.08576905,0.21892504,0.23535417,-0.000
 22703,0.00063989,-0.00045583,-0.00008509,0.00010422,-0.00010135,-0.000
 77838,0.00006462,-0.00035274,-0.00222515,0.00080683,-0.00007453,0.0010
 3724,-0.00387156,0.00132965,0.00040461,-0.00024952,0.00029090,0.000193
 92,-0.00021392,0.00021058,0.00196679,0.00133337,0.00023650,-0.00181851
 ,0.00079649,-0.00096615,0.00043665,-0.00019206,-0.00052806,-0.00028311
 ,0.00065367,-0.00015887,0.00022506,0.00044158,-0.00019119,-0.00028403,
 -0.00017414,-0.00029351,-0.00003986,0.00013141,0.00018534,-0.00008024,
 0.00004724,-0.00004411,-0.00011666,-0.00021726,0.00003563,-0.00004341,
 -0.00001699,0.00007446,0.00000178,0.00003476,-0.00009858,-0.00000861,0
 .00001255,-0.00003662,0.00005524,-0.00039269,0.00020050,-0.00005618,0.
 00033405,0.00001944,-0.00009313,-0.00003848,-0.00019776,-0.00016824,-0
 .00008544,-0.00013938,-0.00006220,0.00003183,-0.00003882,-0.00002166,-
 0.00000023,0.00001069,0.00000277,-0.00000241,0.00000236,0.00002012,0.0
 0000031,-0.00002235,-0.00005583,0.00000762,-0.00005856,-0.00000736,-0.
 00000526,0.00000780,0.00000214,0.00000224,-0.00002424,0.00000174,0.000
 02551,-0.00000999,-0.00002887,0.00002994,-0.00002305,0.00001191,-0.000
 00748,-0.00001916,0.00000341,-0.00000323,0.00000395,-0.00001017,0.0000
 0511,0.00000469,-0.00002351,0.00004662,-0.00004620,0.00000306,0.000002
 41,-0.00001805,-0.00000121,0.00000730,0.00000370,-0.00000929,-0.000012
 08,-0.00001300,0.09708576,0.09219354,-0.04059295,-0.09641871,-0.089245
 18,0.03995173,-0.00446070,0.00033139,0.00328042,-0.00100843,-0.0012432
 8,-0.00017790,0.00070749,-0.00072093,0.00010220,0.00135881,-0.00299100
 ,-0.00072933,-0.00668304,0.01326117,-0.00371436,0.00004553,0.00147168,
 0.00014682,0.00344330,-0.00032727,0.00053798,-0.00088021,0.00103443,0.
 00027915,-0.05605009,0.02848408,0.00334932,0.00194373,-0.00669526,0.00
 015190,-0.01243927,0.01194967,0.00344132,0.00023205,-0.00110969,0.0006
 9674,0.00028355,0.00013213,0.00026737,-0.00013980,-0.00013673,-0.00042
 988,0.00009537,-0.00015079,0.00017479,0.00006787,-0.00013480,-0.000058
 13,-0.00000605,-0.00001065,0.00000249,0.00000370,0.00000778,0.00005615
 ,0.00004192,-0.00001069,-0.00010536,0.00016442,-0.00008750,-0.00012477
 ,0.00002576,-0.00013229,0.00011795,0.00007892,0.00000138,-0.00005846,-
 0.00012816,-0.00005403,-0.00010449,-0.00001351,-0.00016986,0.00000321,
 0.00003415,0.00001090,-0.00001509,-0.00004444,-0.00003267,0.00002043,0
 .00000495,0.00001942,-0.00000329,-0.00000265,-0.00018620,-0.00006131,-
 0.00004753,-0.00003278,-0.00003959,0.00002635,0.00000211,0.00002632,0.
 00000250,0.00004706,0.00004510,-0.00043401,0.00013197,-0.00001645,0.00
 002325,-0.00002944,-0.00000452,0.00002360,-0.00002946,-0.00003900,-0.0
 0006873,0.00011150,0.00008757,-0.00042994,0.00002892,-0.00015990,-0.00
 008624,0.00009375,-0.00002986,0.00003916,-0.00009770,0.00002599,0.0001
 3317,0.00004535,0.00015785,0.01677202,-0.03107024,-0.00543298,-0.00037
 209,-0.00945705,0.00149420,0.05774333,0.00440621,-0.00009224,-0.002080
 70,0.00131938,0.00141517,0.00023015,-0.00023212,0.00087947,-0.00004687
 ,0.00048391,0.00494816,-0.00073606,-0.00107891,-0.01069238,0.00901377,
 -0.00048388,-0.00155835,-0.00024069,-0.00444769,0.00052218,-0.00067521
 ,-0.00015551,-0.00265178,-0.00004925,0.01056842,-0.03666511,-0.0035427
 6,0.01774060,-0.01825802,-0.00482475,0.00365278,-0.00396560,-0.0031141
 8,0.00036774,0.00097178,-0.00159822,-0.00023637,0.00006067,-0.00039126
 ,0.00020157,0.00007105,0.00035069,-0.00041811,0.00011327,-0.00050378,0
 .00010839,0.00042523,-0.00003442,0.00002667,0.00004583,-0.00010613,-0.
 00001713,-0.00002144,-0.00005392,-0.00006614,0.00000201,0.00016342,-0.
 00009283,0.00031549,0.00018480,-0.00004264,0.00016536,-0.00019098,-0.0
 0012190,0.00007756,0.00007418,0.00017408,-0.00001223,0.00010381,0.0000
 8845,0.00018238,-0.00001169,-0.00002211,-0.00001491,0.00001001,0.00004
 899,0.00004359,-0.00002176,-0.00001859,-0.00002388,0.00001133,0.000058
 67,0.00019630,0.00010826,0.00005346,0.00004469,0.00004536,-0.00001570,
 -0.00000864,-0.00002145,-0.00001352,-0.00004694,-0.00007374,0.00052507
 ,-0.00016249,0.00003852,-0.00003304,0.00004325,0.00000403,-0.00003389,
 0.00004011,0.00005027,0.00008778,-0.00013427,-0.00011466,0.00053397,-0
 .00010341,0.00016862,0.00012560,-0.00008208,0.00007036,-0.00006955,0.0
 0016361,-0.00004787,-0.00013758,-0.00004993,-0.00013669,-0.04170156,0.
 03361008,0.01046215,0.01112137,-0.00632872,-0.00302515,-0.00225436,0.0
 3653514,0.00290701,0.00002504,-0.00210033,0.00022341,0.00025991,0.0000
 6609,-0.00045785,0.00010343,-0.00015624,-0.00197925,-0.00092072,0.0005
 2485,0.00977867,-0.00914065,-0.00144662,0.00018496,-0.00036657,0.00006
 739,-0.00082614,0.00022945,-0.00046915,0.00078203,0.00065402,0.0001551
 9,0.00813227,-0.01122857,-0.02706124,0.00131796,-0.00068121,0.00004917
 ,-0.01200968,0.01141814,0.00018180,-0.00113206,0.00036867,0.00041977,-
 0.00032086,0.00007509,-0.00063882,0.00014203,0.00012936,0.00020908,0.0
 0003659,0.00025317,0.00031184,-0.00011461,-0.00014965,0.00002408,-0.00
 001676,-0.00001631,0.00005418,0.00000065,0.00002540,-0.00002835,0.0000
 1470,0.00000402,-0.00001081,-0.00005111,-0.00009032,0.00000571,-0.0000
 0802,0.00003430,0.00000424,0.00000049,-0.00002866,-0.00002352,-0.00000
 368,-0.00001216,-0.00001352,-0.00002473,0.00004373,-0.00000994,-0.0000
 1488,-0.00000150,0.00000685,0.00000914,0.00000397,-0.00000379,0.000007
 64,-0.00000278,-0.00000781,-0.00002364,0.00003545,-0.00001755,0.000002
 00,0.00000039,0.00001303,-0.00000441,0.00000129,-0.00001369,0.00000158
 ,0.00000573,-0.00000114,0.00012936,-0.00008195,0.00002989,-0.00000031,
 0.00001566,0.00001340,-0.00000307,0.00000051,0.00000813,0.00001993,-0.
 00003598,-0.00003142,-0.00001480,-0.00002008,0.00000715,-0.00001483,0.
 00000848,0.00003703,0.00000751,-0.00000932,-0.00001957,0.00004123,0.00
 002087,0.00004472,-0.00314549,0.00517909,-0.00484985,-0.00041233,0.003
 33883,0.00193715,-0.00316064,0.00055247,0.03273263\\-0.00000180,-0.000
 00382,0.00000480,-0.00000126,-0.00000066,0.00000402,0.00000068,-0.0000
 0097,-0.00000147,-0.00000191,-0.00000109,0.00000007,0.00000618,0.00000
 170,-0.00000095,0.00000194,0.,0.00000001,-0.00000112,0.00000395,-0.000
 00565,-0.00000293,0.00000095,0.00000041,0.00000082,-0.00000048,0.00000
 896,0.00000134,-0.00000088,0.00000126,0.00000077,0.00000123,0.00000013
 ,0.00000008,-0.00000038,0.00000049,0.00000008,-0.00000056,0.00000031,0
 .00000012,-0.00000051,0.00000003,0.00000031,0.,-0.00000013,-0.00000088
 ,0.00000021,-0.00000024,-0.00000052,-0.00000023,-0.00000060,-0.0000007
 0,-0.00000052,-0.00000025,-0.00000037,-0.00000029,-0.00000003,-0.00000
 053,-0.00000009,-0.00000022,-0.00000042,-0.00000013,-0.00000023,-0.000
 00044,-0.00000001,-0.00000041,-0.00000033,0.,-0.00000027,-0.00000003,-
 0.00000034,-0.00000066,-0.00000003,0.00000045,-0.00000032,-0.00000022,
 0.00000031,-0.00000021,-0.00000008,0.00000022,-0.00000006,-0.00000009,
 0.00000097,-0.00000004,0.,0.00000057,-0.00000028,0.00000015,0.00000066
 ,-0.00000013,0.00000030,0.00000050,-0.00000017,0.00000008,-0.00000022,
 0.00000041,0.00000019,0.00000001,0.00000031,0.00000039,-0.00000008,0.0
 0000024,0.00000031,0.00000016,0.00000031,0.00000030,-0.00000054,-0.000
 00039,0.00000040,0.00000051,0.00000047,0.00000008,0.00000031,0.0000003
 5,0.00000007,0.00000042,0.00000023,0.00000248,-0.00000034,0.00000699,0
 .00000005,-0.00000051,-0.00000014,-0.00000345,-0.00000047,-0.00001694\
 \\@


 PENOTUS DIED A HUNDRED YEARS OLD WANTING BUT TWO...
 AND HE USED TO SAY BEFORE HE DIED, HAVING SPENT HIS
 WHOLE LIFE IN VAINLY SEARCHING AFTER THE PHILOSOPHER'S
 STONE, THAT IF HE HAD A MORTAL ENEMY HE DID NOT DARE
 TO ENCOUNTER OPENLY, HE WOULD ADVISE HIM ABOVE ALL
 THINGS TO GIVE HIMSELF UP TO THE STUDY AND PRACTICE
 OF ALCHEMY.  --  NICOLAS LEMERY, M.D.
 "A COURSE OF CHYMISTRY", WALTER KETTILBY, LONDON, 1686
 Job cpu time:       1 days  2 hours 29 minutes 24.4 seconds.
 Elapsed time:       0 days  1 hours  6 minutes 23.6 seconds.
 File lengths (MBytes):  RWF=   3416 Int=      0 D2E=      0 Chk=     64 Scr=     16
 Normal termination of Gaussian 16 at Fri May 28 14:13:19 2021.
