 Entering Gaussian System, Link 0=g16
 Input=ethane.com
 Output=ethane.log
 Initial command:
 /curc/sw/gaussian/16/g16/l1.exe "/rc_scratch/vijo5019/Gau-151190.inp" -scrdir="/rc_scratch/vijo5019/"
 Entering Link 1 = /curc/sw/gaussian/16/g16/l1.exe PID=    151191.
  
 Copyright (c) 1988,1990,1992,1993,1995,1998,2003,2009,2016,
            Gaussian, Inc.  All Rights Reserved.
  
 This is part of the Gaussian(R) 16 program.  It is based on
 the Gaussian(R) 09 system (copyright 2009, Gaussian, Inc.),
 the Gaussian(R) 03 system (copyright 2003, Gaussian, Inc.),
 the Gaussian(R) 98 system (copyright 1998, Gaussian, Inc.),
 the Gaussian(R) 94 system (copyright 1995, Gaussian, Inc.),
 the Gaussian 92(TM) system (copyright 1992, Gaussian, Inc.),
 the Gaussian 90(TM) system (copyright 1990, Gaussian, Inc.),
 the Gaussian 88(TM) system (copyright 1988, Gaussian, Inc.),
 the Gaussian 86(TM) system (copyright 1986, Carnegie Mellon
 University), and the Gaussian 82(TM) system (copyright 1983,
 Carnegie Mellon University). Gaussian is a federally registered
 trademark of Gaussian, Inc.
  
 This software contains proprietary and confidential information,
 including trade secrets, belonging to Gaussian, Inc.
  
 This software is provided under written license and may be
 used, copied, transmitted, or stored only in accord with that
 written license.
  
 The following legend is applicable only to US Government
 contracts under FAR:
  
                    RESTRICTED RIGHTS LEGEND
  
 Use, reproduction and disclosure by the US Government is
 subject to restrictions as set forth in subparagraphs (a)
 and (c) of the Commercial Computer Software - Restricted
 Rights clause in FAR 52.227-19.
  
 Gaussian, Inc.
 340 Quinnipiac St., Bldg. 40, Wallingford CT 06492
  
  
 ---------------------------------------------------------------
 Warning -- This program may not be used in any manner that
 competes with the business of Gaussian, Inc. or will provide
 assistance to any competitor of Gaussian, Inc.  The licensee
 of this program is prohibited from giving any competitor of
 Gaussian, Inc. access to this program.  By using this program,
 the user acknowledges that Gaussian, Inc. is engaged in the
 business of creating and licensing software in the field of
 computational chemistry and represents and warrants to the
 licensee that it is not a competitor of Gaussian, Inc. and that
 it will not use this program in any manner prohibited above.
 ---------------------------------------------------------------
  

 Cite this work as:
 Gaussian 16, Revision A.03,
 M. J. Frisch, G. W. Trucks, H. B. Schlegel, G. E. Scuseria, 
 M. A. Robb, J. R. Cheeseman, G. Scalmani, V. Barone, 
 G. A. Petersson, H. Nakatsuji, X. Li, M. Caricato, A. V. Marenich, 
 J. Bloino, B. G. Janesko, R. Gomperts, B. Mennucci, H. P. Hratchian, 
 J. V. Ortiz, A. F. Izmaylov, J. L. Sonnenberg, D. Williams-Young, 
 F. Ding, F. Lipparini, F. Egidi, J. Goings, B. Peng, A. Petrone, 
 T. Henderson, D. Ranasinghe, V. G. Zakrzewski, J. Gao, N. Rega, 
 G. Zheng, W. Liang, M. Hada, M. Ehara, K. Toyota, R. Fukuda, 
 J. Hasegawa, M. Ishida, T. Nakajima, Y. Honda, O. Kitao, H. Nakai, 
 T. Vreven, K. Throssell, J. A. Montgomery, Jr., J. E. Peralta, 
 F. Ogliaro, M. J. Bearpark, J. J. Heyd, E. N. Brothers, K. N. Kudin, 
 V. N. Staroverov, T. A. Keith, R. Kobayashi, J. Normand, 
 K. Raghavachari, A. P. Rendell, J. C. Burant, S. S. Iyengar, 
 J. Tomasi, M. Cossi, J. M. Millam, M. Klene, C. Adamo, R. Cammi, 
 J. W. Ochterski, R. L. Martin, K. Morokuma, O. Farkas, 
 J. B. Foresman, and D. J. Fox, Gaussian, Inc., Wallingford CT, 2016.
 
 ******************************************
 Gaussian 16:  ES64L-G16RevA.03 25-Dec-2016
                 7-Jul-2021 
 ******************************************
 %nprocshared=28
 Will use up to   28 processors via shared memory.
 -------------------
 #n UCCSD/cc-pVDZ SP
 -------------------
 1/38=1,172=1/1;
 2/12=2,17=6,18=5,40=1/2;
 3/5=16,11=2,25=1,30=1,116=2/1,2,3;
 4//1;
 5/5=2,38=5/2;
 8/6=4,9=120000,10=1/1,4;
 9/5=7/13;
 6/7=2,8=2,9=2,10=2/1;
 99/5=1,9=1/99;
 -------------------
 Title Card Required
 -------------------
 Symbolic Z-matrix:
 Charge =  0 Multiplicity = 1
 C                    -0.81811   0.30579  -0.01071 
 H                    -0.46146  -0.70302  -0.01071 
 H                    -0.46144   0.81018  -0.88436 
 H                    -1.88811   0.3058   -0.01071 
 C                    -0.30477   1.03174   1.2467 
 H                     0.76523   1.03171   1.2467 
 H                    -0.66141   2.04056   1.24669 
 H                    -0.66146   0.52735   2.12035 
 
                          Input orientation:                          
 ---------------------------------------------------------------------
 Center     Atomic      Atomic             Coordinates (Angstroms)
 Number     Number       Type             X           Y           Z
 ---------------------------------------------------------------------
      1          6           0       -0.818112    0.305785   -0.010710
      2          1           0       -0.461457   -0.703025   -0.010710
      3          1           0       -0.461439    0.810183   -0.884361
      4          1           0       -1.888112    0.305798   -0.010710
      5          6           0       -0.304770    1.031741    1.246695
      6          1           0        0.765231    1.031711    1.246705
      7          1           0       -0.661408    2.040557    1.246686
      8          1           0       -0.661458    0.527354    2.120347
 ---------------------------------------------------------------------
                    Distance matrix (angstroms):
                    1          2          3          4          5
     1  C    0.000000
     2  H    1.070000   0.000000
     3  H    1.070000   1.747302   0.000000
     4  H    1.070000   1.747303   1.747303   0.000000
     5  C    1.540000   2.148263   2.148263   2.148263   0.000000
     6  H    2.148263   2.468838   2.468853   3.024610   1.070000
     7  H    2.148263   3.024610   2.468839   2.468852   1.070000
     8  H    2.148263   2.468853   3.024611   2.468839   1.070000
                    6          7          8
     6  H    0.000000
     7  H    1.747303   0.000000
     8  H    1.747303   1.747303   0.000000
 Stoichiometry    C2H6
 Framework group  D3[C3(C.C),X(H6)]
 Deg. of freedom     4
 Full point group                 D3      NOp   6
 Largest Abelian subgroup         C2      NOp   2
 Largest concise Abelian subgroup C2      NOp   2
                         Standard orientation:                         
 ---------------------------------------------------------------------
 Center     Atomic      Atomic             Coordinates (Angstroms)
 Number     Number       Type             X           Y           Z
 ---------------------------------------------------------------------
      1          6           0        0.000000    0.000000    0.770000
      2          1           0       -0.504395    0.873656    1.126666
      3          1           0        1.008806   -0.000010    1.126666
      4          1           0       -0.504411   -0.873647    1.126666
      5          6           0        0.000000    0.000000   -0.770000
      6          1           0        0.504395    0.873656   -1.126666
      7          1           0        0.504411   -0.873647   -1.126666
      8          1           0       -1.008806   -0.000010   -1.126666
 ---------------------------------------------------------------------
 Rotational constants (GHZ):          82.1231625          20.2293894          20.2293894
 Standard basis: CC-pVDZ (5D, 7F)
 There are    30 symmetry adapted cartesian basis functions of A   symmetry.
 There are    30 symmetry adapted cartesian basis functions of B   symmetry.
 There are    29 symmetry adapted basis functions of A   symmetry.
 There are    29 symmetry adapted basis functions of B   symmetry.
    58 basis functions,   108 primitive gaussians,    60 cartesian basis functions
     9 alpha electrons        9 beta electrons
       nuclear repulsion energy        42.6703238333 Hartrees.
 NAtoms=    8 NActive=    8 NUniq=    2 SFac= 4.00D+00 NAtFMM=   60 NAOKFM=F Big=F
 Integral buffers will be    131072 words long.
 Raffenetti 2 integral format.
 Two-electron integral symmetry is turned on.
 One-electron integrals computed using PRISM.
 NBasis=    58 RedAO= T EigKep=  8.18D-03  NBF=    29    29
 NBsUse=    58 1.00D-06 EigRej= -1.00D+00 NBFU=    29    29
 ExpMin= 1.22D-01 ExpMax= 6.67D+03 ExpMxC= 2.28D+02 IAcc=3 IRadAn=         5 AccDes= 0.00D+00
 Harris functional with IExCor=  205 and IRadAn=       5 diagonalized for initial guess.
 HarFok:  IExCor=  205 AccDes= 0.00D+00 IRadAn=         5 IDoV= 1 UseB2=F ITyADJ=14
 ICtDFT=  3500011 ScaDFX=  1.000000  1.000000  1.000000  1.000000
 FoFCou: FMM=F IPFlag=           0 FMFlag=      100000 FMFlg1=           0
         NFxFlg=           0 DoJE=T BraDBF=F KetDBF=T FulRan=T
         wScrn=  0.000000 ICntrl=       500 IOpCl=  0 I1Cent=   200000004 NGrid=           0
         NMat0=    1 NMatS0=      1 NMatT0=    0 NMatD0=    1 NMtDS0=    0 NMtDT0=    0
 Petite list used in FoFCou.
 Initial guess orbital symmetries:
 Alpha Orbitals:
       Occupied  (A1) (A2) (A1) (A2) (E) (E) (A1) (E) (E)
       Virtual   (A1) (A2) (E) (E) (E) (E) (A2) (E) (E) (A1) (E)
                 (E) (A2) (E) (E) (E) (E) (A1) (A2) (E) (E) (A1)
                 (E) (E) (A2) (A1) (A2) (A1) (E) (E) (A2) (E) (E)
                 (E) (E) (E) (E) (A2) (A1) (E) (E) (E) (E) (A2)
                 (A1) (E) (E) (E) (E)
 Beta  Orbitals:
       Occupied  (A1) (A2) (A1) (A2) (E) (E) (A1) (E) (E)
       Virtual   (A1) (A2) (E) (E) (E) (E) (A2) (E) (E) (A1) (E)
                 (E) (A2) (E) (E) (E) (E) (A1) (A2) (E) (E) (A1)
                 (E) (E) (A2) (A1) (A2) (A1) (E) (E) (A2) (E) (E)
                 (E) (E) (E) (E) (A2) (A1) (E) (E) (E) (E) (A2)
                 (A1) (E) (E) (E) (E)
 The electronic state of the initial guess is 1-A1.
 Initial guess <Sx>= 0.0000 <Sy>= 0.0000 <Sz>= 0.0000 <S**2>=-0.0000 S=-0.0000
 Keep R1 and R2 ints in memory in symmetry-blocked form, NReq=7320755.
 Requested convergence on RMS density matrix=1.00D-08 within 128 cycles.
 Requested convergence on MAX density matrix=1.00D-06.
 Requested convergence on             energy=1.00D-06.
 No special actions if energy rises.
 SCF Done:  E(UHF) =  -79.2320219038     A.U. after    9 cycles
            NFock=  9  Conv=0.46D-08     -V/T= 1.9994
 <Sx>= 0.0000 <Sy>= 0.0000 <Sz>= 0.0000 <S**2>=-0.0000 S=-0.0000
 <L.S>=  0.00000000000    
 Annihilation of the first spin contaminant:
 S**2 before annihilation    -0.0000,   after     0.0000
 ExpMin= 1.22D-01 ExpMax= 6.67D+03 ExpMxC= 2.28D+02 IAcc=3 IRadAn=         5 AccDes= 0.00D+00
 HarFok:  IExCor=  205 AccDes= 0.00D+00 IRadAn=         5 IDoV=-2 UseB2=F ITyADJ=14
 ICtDFT= 12500011 ScaDFX=  1.000000  1.000000  1.000000  1.000000
 Range of M.O.s used for correlation:     3    58
 NBasis=    58 NAE=     9 NBE=     9 NFC=     2 NFV=     0
 NROrb=     56 NOA=     7 NOB=     7 NVA=    49 NVB=    49
 Semi-Direct transformation.
 ModeAB=           4 MOrb=             7 LenV=    8052804635
 LASXX=       276631 LTotXX=      276631 LenRXX=      572731
 LTotAB=      296100 MaxLAS=      388080 LenRXY=           0
 NonZer=      849362 LenScr=     1572864 LnRSAI=      388080
 LnScr1=     1048576 LExtra=           0 Total=      3582251
 MaxDsk=          -1 SrtSym=           T ITran=            4
 JobTyp=1 Pass  1:  I=   1 to   7.
 (rs|ai) integrals will be sorted in core.
 ModeAB=           4 MOrb=             7 LenV=    8052804635
 LASXX=       276631 LTotXX=      276631 LenRXX=      503906
 LTotAB=      227275 MaxLAS=      388080 LenRXY=           0
 NonZer=      780537 LenScr=     1572864 LnRSAI=      388080
 LnScr1=     1048576 LExtra=           0 Total=      3513426
 MaxDsk=          -1 SrtSym=           T ITran=            4
 JobTyp=2 Pass  1:  I=   1 to   7.
 (rs|ai) integrals will be sorted in core.
 Spin components of T(2) and E(2):
     alpha-alpha T2 =       0.1096318662D-01 E2=     -0.3128305785D-01
     alpha-beta  T2 =       0.7873239851D-01 E2=     -0.2380383576D+00
     beta-beta   T2 =       0.1096318662D-01 E2=     -0.3128305785D-01
 ANorm=    0.1049122858D+01
 E2 =    -0.3006044733D+00 EUMP2 =    -0.79532626377188D+02
 (S**2,0)=  0.00000D+00           (S**2,1)=  0.00000D+00
 E(PUHF)=      -0.79232021904D+02        E(PMP2)=      -0.79532626377D+02
 Keep R2 and R3 ints in memory in symmetry-blocked form, NReq=7324753.
 CIDS: In Core Option IDoMem=           1.
 Iterations=  50 Convergence= 0.100D-06
 Produce multiple copies of IABC intergrals
 Iteration Nr.   1
 **********************
 DD1Dir will call FoFMem   1 times, MxPair=       140
 NAB=    49 NAA=    21 NBB=    21.
 E(PMP3)=      -0.79564787902D+02
 MP4(R+Q)=  0.53080781D-02
 E3=       -0.32161525D-01        EUMP3=      -0.79564787902D+02
 E4(DQ)=   -0.28467170D-02        UMP4(DQ)=   -0.79567634619D+02
 E4(SDQ)=  -0.39384567D-02        UMP4(SDQ)=  -0.79568726359D+02
 DE(Corr)= -0.32743532     E(Corr)=     -79.559457223    
 NORM(A)=   0.10598272D+01
 Iteration Nr.   2
 **********************
 DD1Dir will call FoFMem   1 times, MxPair=       140
 NAB=    49 NAA=    21 NBB=    21.
 DE(Corr)= -0.33511972     E(CORR)=     -79.567141622     Delta=-7.68D-03
 NORM(A)=   0.10631278D+01
 Iteration Nr.   3
 **********************
 DD1Dir will call FoFMem   1 times, MxPair=       140
 NAB=    49 NAA=    21 NBB=    21.
 DE(Corr)= -0.33683394     E(CORR)=     -79.568855849     Delta=-1.71D-03
 NORM(A)=   0.10635735D+01
 Iteration Nr.   4
 **********************
 DD1Dir will call FoFMem   1 times, MxPair=       140
 NAB=    49 NAA=    21 NBB=    21.
 DE(Corr)= -0.33718355     E(CORR)=     -79.569205454     Delta=-3.50D-04
 NORM(A)=   0.10636391D+01
 Iteration Nr.   5
 **********************
 DD1Dir will call FoFMem   1 times, MxPair=       140
 NAB=    49 NAA=    21 NBB=    21.
 DE(Corr)= -0.33720973     E(CORR)=     -79.569231638     Delta=-2.62D-05
 NORM(A)=   0.10636386D+01
 Iteration Nr.   6
 **********************
 DD1Dir will call FoFMem   1 times, MxPair=       140
 NAB=    49 NAA=    21 NBB=    21.
 DE(Corr)= -0.33721033     E(CORR)=     -79.569232238     Delta=-6.00D-07
 NORM(A)=   0.10636376D+01
 Iteration Nr.   7
 **********************
 DD1Dir will call FoFMem   1 times, MxPair=       140
 NAB=    49 NAA=    21 NBB=    21.
 DE(Corr)= -0.33721014     E(CORR)=     -79.569232045     Delta= 1.94D-07
 NORM(A)=   0.10636380D+01
 Iteration Nr.   8
 **********************
 DD1Dir will call FoFMem   1 times, MxPair=       140
 NAB=    49 NAA=    21 NBB=    21.
 DE(Corr)= -0.33721019     E(CORR)=     -79.569232096     Delta=-5.12D-08
 NORM(A)=   0.10636379D+01
 Wavefunction amplitudes converged. E(Corr)=     -79.569232096    
 Largest amplitude= 3.69D-02

 S**2, projected HF & approx projected MPn energies after annihilation of
 unwanted spin states (see manual for definitions):

 spins       (S**2,0) (S**2,1)    PUHF        PMP2        PMP3        PMP4
 annihilated
 s+1        -0.00000 -0.00000  -79.232022  -79.532626  -79.564788
 s+1,s+2     0.00000  0.00000  -79.232022  -79.532626  -79.564788
 s+1 to s+3 -0.00000 -0.00000  -79.232022  -79.532626  -79.564788
 s+1 to s+4  0.00000  0.00000  -79.232022  -79.532626  -79.564788
 s+1 to s+5  0.00000  0.00000  -79.232022
 s+1 to s+6 -0.00000  0.00000  -79.232022

 Discarding MO integrals.

 **********************************************************************

            Population analysis using the SCF density.

 **********************************************************************

 Orbital symmetries:
 Alpha Orbitals:
       Occupied  (A1) (A2) (A1) (A2) (E) (E) (A1) (E) (E)
       Virtual   (A1) (A2) (E) (E) (E) (E) (A2) (E) (E) (A1) (E)
                 (E) (A2) (E) (E) (E) (E) (A1) (A2) (E) (E) (A1)
                 (E) (E) (A2) (A1) (A2) (E) (E) (A1) (E) (E) (A2)
                 (E) (E) (E) (E) (A2) (A1) (E) (E) (E) (E) (A2)
                 (A1) (E) (E) (E) (E)
 Beta  Orbitals:
       Occupied  (A1) (A2) (A1) (A2) (E) (E) (A1) (E) (E)
       Virtual   (A1) (A2) (E) (E) (E) (E) (A2) (E) (E) (A1) (E)
                 (E) (A2) (E) (E) (E) (E) (A1) (A2) (E) (E) (A1)
                 (E) (E) (A2) (A1) (A2) (E) (E) (A1) (E) (E) (A2)
                 (E) (E) (E) (E) (A2) (A1) (E) (E) (E) (E) (A2)
                 (A1) (E) (E) (E) (E)
 The electronic state is 1-A1.
 Alpha  occ. eigenvalues --  -11.21026 -11.20969  -1.02150  -0.84613  -0.60362
 Alpha  occ. eigenvalues --   -0.60362  -0.49478  -0.49368  -0.49368
 Alpha virt. eigenvalues --    0.18791   0.24121   0.25900   0.25900   0.28664
 Alpha virt. eigenvalues --    0.28664   0.39182   0.60318   0.60318   0.60704
 Alpha virt. eigenvalues --    0.67704   0.67704   0.84135   0.90264   0.90264
 Alpha virt. eigenvalues --    0.91088   0.91088   0.93454   0.97809   1.12695
 Alpha virt. eigenvalues --    1.12695   1.23480   1.48325   1.48325   1.55288
 Alpha virt. eigenvalues --    1.69693   1.70949   1.88143   1.88143   1.88739
 Alpha virt. eigenvalues --    1.96620   1.96620   1.96661   1.97925   1.97925
 Alpha virt. eigenvalues --    2.11954   2.11954   2.29494   2.32761   2.48990
 Alpha virt. eigenvalues --    2.48990   2.60983   2.60983   2.82891   2.85392
 Alpha virt. eigenvalues --    2.88831   2.88831   2.99104   2.99104
  Beta  occ. eigenvalues --  -11.21026 -11.20969  -1.02150  -0.84613  -0.60362
  Beta  occ. eigenvalues --   -0.60362  -0.49478  -0.49368  -0.49368
  Beta virt. eigenvalues --    0.18791   0.24121   0.25900   0.25900   0.28664
  Beta virt. eigenvalues --    0.28664   0.39182   0.60318   0.60318   0.60704
  Beta virt. eigenvalues --    0.67704   0.67704   0.84135   0.90264   0.90264
  Beta virt. eigenvalues --    0.91088   0.91088   0.93454   0.97809   1.12695
  Beta virt. eigenvalues --    1.12695   1.23480   1.48325   1.48325   1.55288
  Beta virt. eigenvalues --    1.69693   1.70949   1.88143   1.88143   1.88739
  Beta virt. eigenvalues --    1.96620   1.96620   1.96661   1.97925   1.97925
  Beta virt. eigenvalues --    2.11954   2.11954   2.29494   2.32761   2.48990
  Beta virt. eigenvalues --    2.48990   2.60983   2.60983   2.82891   2.85392
  Beta virt. eigenvalues --    2.88831   2.88831   2.99104   2.99104
          Condensed to atoms (all electrons):
               1          2          3          4          5          6
     1  C    4.495976   0.412894   0.412894   0.412894   0.426904  -0.029321
     2  H    0.412894   0.647965  -0.026164  -0.026164  -0.029321  -0.005573
     3  H    0.412894  -0.026164   0.647965  -0.026164  -0.029321  -0.005572
     4  H    0.412894  -0.026164  -0.026164   0.647965  -0.029321   0.007402
     5  C    0.426904  -0.029321  -0.029321  -0.029321   4.495976   0.412894
     6  H   -0.029321  -0.005573  -0.005572   0.007402   0.412894   0.647965
     7  H   -0.029321   0.007402  -0.005573  -0.005572   0.412894  -0.026164
     8  H   -0.029321  -0.005572   0.007402  -0.005573   0.412894  -0.026164
               7          8
     1  C   -0.029321  -0.029321
     2  H    0.007402  -0.005572
     3  H   -0.005573   0.007402
     4  H   -0.005572  -0.005573
     5  C    0.412894   0.412894
     6  H   -0.026164  -0.026164
     7  H    0.647965  -0.026164
     8  H   -0.026164   0.647965
          Atomic-Atomic Spin Densities.
               1          2          3          4          5          6
     1  C   -0.000000  -0.000000  -0.000000  -0.000000  -0.000000   0.000000
     2  H   -0.000000  -0.000000   0.000000   0.000000   0.000000   0.000000
     3  H   -0.000000   0.000000  -0.000000   0.000000   0.000000   0.000000
     4  H   -0.000000   0.000000   0.000000  -0.000000   0.000000  -0.000000
     5  C   -0.000000   0.000000   0.000000   0.000000  -0.000000  -0.000000
     6  H    0.000000   0.000000   0.000000  -0.000000  -0.000000  -0.000000
     7  H   -0.000000  -0.000000   0.000000   0.000000  -0.000000   0.000000
     8  H    0.000000   0.000000  -0.000000   0.000000  -0.000000   0.000000
               7          8
     1  C   -0.000000   0.000000
     2  H   -0.000000   0.000000
     3  H    0.000000  -0.000000
     4  H    0.000000   0.000000
     5  C   -0.000000  -0.000000
     6  H    0.000000   0.000000
     7  H   -0.000000   0.000000
     8  H    0.000000  -0.000000
 Mulliken charges and spin densities:
               1          2
     1  C   -0.073598  -0.000000
     2  H    0.024533  -0.000000
     3  H    0.024533  -0.000000
     4  H    0.024533  -0.000000
     5  C   -0.073598  -0.000000
     6  H    0.024533  -0.000000
     7  H    0.024533  -0.000000
     8  H    0.024533  -0.000000
 Sum of Mulliken charges =  -0.00000  -0.00000
 Mulliken charges and spin densities with hydrogens summed into heavy atoms:
               1          2
     1  C   -0.000000  -0.000000
     5  C   -0.000000  -0.000000
 Electronic spatial extent (au):  <R**2>=            108.0091
 Charge=             -0.0000 electrons
 Dipole moment (field-independent basis, Debye):
    X=              0.0000    Y=              0.0000    Z=             -0.0000  Tot=              0.0000
 Quadrupole moment (field-independent basis, Debye-Ang):
   XX=            -14.7016   YY=            -14.7016   ZZ=            -15.7875
   XY=              0.0000   XZ=              0.0000   YZ=             -0.0000
 Traceless Quadrupole moment (field-independent basis, Debye-Ang):
   XX=              0.3620   YY=              0.3620   ZZ=             -0.7239
   XY=              0.0000   XZ=              0.0000   YZ=             -0.0000
 Octapole moment (field-independent basis, Debye-Ang**2):
  XXX=             -0.0000  YYY=              0.0000  ZZZ=              0.0000  XYY=             -0.0000
  XXY=             -0.0000  XXZ=              0.0000  XZZ=             -0.0000  YZZ=             -0.0000
  YYZ=             -0.0000  XYZ=              0.0000
 Hexadecapole moment (field-independent basis, Debye-Ang**3):
 XXXX=            -28.1668 YYYY=            -28.1668 ZZZZ=            -92.9624 XXXY=              0.0000
 XXXZ=              1.1556 YYYX=              0.0000 YYYZ=              0.0000 ZZZX=             -0.0000
 ZZZY=              0.0000 XXYY=             -9.3889 XXZZ=            -19.2207 YYZZ=            -19.2207
 XXYZ=             -0.0000 YYXZ=             -1.1556 ZZXY=              0.0000
 N-N= 4.267032383332D+01 E-N=-2.691336946368D+02  KE= 7.928295498030D+01
 Symmetry A    KE= 4.085525285050D+01
 Symmetry B    KE= 3.842770212980D+01
 Symmetry A    SP=-1.563697805936D-15
 Symmetry B    SP=-1.290922236561D-15
 1\1\GINC-BNODE0308\SP\UCCSD-FC\CC-pVDZ\C2H6\VIJO5019\07-Jul-2021\0\\#n
  UCCSD/cc-pVDZ SP\\Title Card Required\\0,1\C,0,-0.81811172,0.30578512
 ,-0.01070967\H,0,-0.46145729,-0.70302488,-0.01070967\H,0,-0.46143888,0
 .81018331,-0.88436117\H,0,-1.88811172,0.3057983,-0.01070967\C,0,-0.304
 7695,1.03174139,1.2466953\H,0,0.7652305,1.0317113,1.24670472\H,0,-0.66
 140832,2.04055691,1.24668575\H,0,-0.661458,0.52735392,2.12034659\\Vers
 ion=ES64L-G16RevA.03\State=1-A1\HF=-79.2320219\MP2=-79.5326264\MP3=-79
 .5647879\MP4D=-79.5729427\MP4DQ=-79.5676346\PUHF=-79.2320219\PMP2-0=-7
 9.5326264\PMP3-0=-79.5647879\MP4SDQ=-79.5687264\CCSD=-79.5692321\S2=0.
 \S2-1=0.\S2A=0.\RMSD=4.585e-09\PG=D03 [C3(C1.C1),X(H6)]\\@


 IN-LAWS ARE LIKE SEEDS. YOU DON'T NEED THEM
 BUT THEY COME WITH THE TOMATO.
 Job cpu time:       0 days  0 hours  1 minutes 20.1 seconds.
 Elapsed time:       0 days  0 hours  0 minutes  3.0 seconds.
 File lengths (MBytes):  RWF=    126 Int=      0 D2E=      0 Chk=      2 Scr=      2
 Normal termination of Gaussian 16 at Wed Jul  7 12:13:43 2021.
