 Entering Gaussian System, Link 0=g16
 Input=ethane.com
 Output=ethane.log
 Initial command:
 /projects/jasm3285/g16/l1.exe "/rc_scratch/jasm3285/Gau-13529.inp" -scrdir="/rc_scratch/jasm3285/"
 Entering Link 1 = /projects/jasm3285/g16/l1.exe PID=     13530.
  
 Copyright (c) 1988,1990,1992,1993,1995,1998,2003,2009,2016,
            Gaussian, Inc.  All Rights Reserved.
  
 This is part of the Gaussian(R) 16 program.  It is based on
 the Gaussian(R) 09 system (copyright 2009, Gaussian, Inc.),
 the Gaussian(R) 03 system (copyright 2003, Gaussian, Inc.),
 the Gaussian(R) 98 system (copyright 1998, Gaussian, Inc.),
 the Gaussian(R) 94 system (copyright 1995, Gaussian, Inc.),
 the Gaussian 92(TM) system (copyright 1992, Gaussian, Inc.),
 the Gaussian 90(TM) system (copyright 1990, Gaussian, Inc.),
 the Gaussian 88(TM) system (copyright 1988, Gaussian, Inc.),
 the Gaussian 86(TM) system (copyright 1986, Carnegie Mellon
 University), and the Gaussian 82(TM) system (copyright 1983,
 Carnegie Mellon University). Gaussian is a federally registered
 trademark of Gaussian, Inc.
  
 This software contains proprietary and confidential information,
 including trade secrets, belonging to Gaussian, Inc.
  
 This software is provided under written license and may be
 used, copied, transmitted, or stored only in accord with that
 written license.
  
 The following legend is applicable only to US Government
 contracts under FAR:
  
                    RESTRICTED RIGHTS LEGEND
  
 Use, reproduction and disclosure by the US Government is
 subject to restrictions as set forth in subparagraphs (a)
 and (c) of the Commercial Computer Software - Restricted
 Rights clause in FAR 52.227-19.
  
 Gaussian, Inc.
 340 Quinnipiac St., Bldg. 40, Wallingford CT 06492
  
  
 ---------------------------------------------------------------
 Warning -- This program may not be used in any manner that
 competes with the business of Gaussian, Inc. or will provide
 assistance to any competitor of Gaussian, Inc.  The licensee
 of this program is prohibited from giving any competitor of
 Gaussian, Inc. access to this program.  By using this program,
 the user acknowledges that Gaussian, Inc. is engaged in the
 business of creating and licensing software in the field of
 computational chemistry and represents and warrants to the
 licensee that it is not a competitor of Gaussian, Inc. and that
 it will not use this program in any manner prohibited above.
 ---------------------------------------------------------------
  

 Cite this work as:
 Gaussian 16, Revision A.03,
 M. J. Frisch, G. W. Trucks, H. B. Schlegel, G. E. Scuseria, 
 M. A. Robb, J. R. Cheeseman, G. Scalmani, V. Barone, 
 G. A. Petersson, H. Nakatsuji, X. Li, M. Caricato, A. V. Marenich, 
 J. Bloino, B. G. Janesko, R. Gomperts, B. Mennucci, H. P. Hratchian, 
 J. V. Ortiz, A. F. Izmaylov, J. L. Sonnenberg, D. Williams-Young, 
 F. Ding, F. Lipparini, F. Egidi, J. Goings, B. Peng, A. Petrone, 
 T. Henderson, D. Ranasinghe, V. G. Zakrzewski, J. Gao, N. Rega, 
 G. Zheng, W. Liang, M. Hada, M. Ehara, K. Toyota, R. Fukuda, 
 J. Hasegawa, M. Ishida, T. Nakajima, Y. Honda, O. Kitao, H. Nakai, 
 T. Vreven, K. Throssell, J. A. Montgomery, Jr., J. E. Peralta, 
 F. Ogliaro, M. J. Bearpark, J. J. Heyd, E. N. Brothers, K. N. Kudin, 
 V. N. Staroverov, T. A. Keith, R. Kobayashi, J. Normand, 
 K. Raghavachari, A. P. Rendell, J. C. Burant, S. S. Iyengar, 
 J. Tomasi, M. Cossi, J. M. Millam, M. Klene, C. Adamo, R. Cammi, 
 J. W. Ochterski, R. L. Martin, K. Morokuma, O. Farkas, 
 J. B. Foresman, and D. J. Fox, Gaussian, Inc., Wallingford CT, 2016.
 
 ******************************************
 Gaussian 16:  ES64L-G16RevA.03 25-Dec-2016
                19-Mar-2018 
 ******************************************
 %nprocshared=28
 Will use up to   28 processors via shared memory.
 ----------------------------------------------------------------------
 # opt=(calcfc,verytight,maxcyc=400) freq cbs-qb3 nosymm geom=connectiv
 ity ccsd=maxcyc=1000 iop(7/33=1)
 ----------------------------------------------------------------------
 1/6=400,7=1,10=4,18=20,19=15,26=3,38=1,57=2/1,3;
 2/9=110,12=2,15=1,17=6,18=5,40=1/2;
 3/5=4,6=6,7=700,11=2,25=1,30=1,71=2,74=-5,140=1/1,2,3;
 4//1;
 5/5=2,38=5/2;
 8/6=4,10=90,11=11/1;
 11/6=1,8=1,9=11,15=111,16=1,31=1/1,2,10;
 10/6=1,13=1,31=1/2;
 6/7=2,8=2,9=2,10=2,28=1/1;
 7/10=1,18=20,25=1,30=1,33=1/1,2,3,16;
 1/6=400,7=1,10=4,18=20,19=15,26=3/3(2);
 2/9=110,15=1/2;
 99//99;
 2/9=110,15=1/2;
 3/5=4,6=6,7=700,11=2,25=1,30=1,71=1,74=-5/1,2,3;
 4/5=5,16=3,69=1/1;
 5/5=2,38=5/2;
 7/30=1,33=1/1,2,3,16;
 1/6=400,7=1,18=20,19=15,26=3/3(-5);
 2/9=110,15=1/2;
 6/7=2,8=2,9=2,10=2,19=2,28=1/1;
 99/9=1/99;
 -------------------
 Title Card Required
 -------------------
 Symbolic Z-matrix:
 Charge =  0 Multiplicity = 1
 C                    -0.81811   0.30579  -0.01071 
 H                    -0.46146  -0.70302  -0.01071 
 H                    -0.46144   0.81018  -0.88436 
 H                    -1.88811   0.3058   -0.01071 
 C                    -0.30477   1.03174   1.2467 
 H                     0.76523   1.03171   1.2467 
 H                    -0.66141   2.04056   1.24669 
 H                    -0.66146   0.52735   2.12035 
 

 GradGradGradGradGradGradGradGradGradGradGradGradGradGradGradGradGradGrad
 Berny optimization.
 Initialization pass.
                           ----------------------------
                           !    Initial Parameters    !
                           ! (Angstroms and Degrees)  !
 --------------------------                            --------------------------
 ! Name  Definition              Value          Derivative Info.                !
 --------------------------------------------------------------------------------
 ! R1    R(1,2)                  1.07           calculate D2E/DX2 analytically  !
 ! R2    R(1,3)                  1.07           calculate D2E/DX2 analytically  !
 ! R3    R(1,4)                  1.07           calculate D2E/DX2 analytically  !
 ! R4    R(1,5)                  1.54           calculate D2E/DX2 analytically  !
 ! R5    R(5,6)                  1.07           calculate D2E/DX2 analytically  !
 ! R6    R(5,7)                  1.07           calculate D2E/DX2 analytically  !
 ! R7    R(5,8)                  1.07           calculate D2E/DX2 analytically  !
 ! A1    A(2,1,3)              109.4712         calculate D2E/DX2 analytically  !
 ! A2    A(2,1,4)              109.4712         calculate D2E/DX2 analytically  !
 ! A3    A(2,1,5)              109.4712         calculate D2E/DX2 analytically  !
 ! A4    A(3,1,4)              109.4712         calculate D2E/DX2 analytically  !
 ! A5    A(3,1,5)              109.4713         calculate D2E/DX2 analytically  !
 ! A6    A(4,1,5)              109.4712         calculate D2E/DX2 analytically  !
 ! A7    A(1,5,6)              109.4712         calculate D2E/DX2 analytically  !
 ! A8    A(1,5,7)              109.4712         calculate D2E/DX2 analytically  !
 ! A9    A(1,5,8)              109.4712         calculate D2E/DX2 analytically  !
 ! A10   A(6,5,7)              109.4713         calculate D2E/DX2 analytically  !
 ! A11   A(6,5,8)              109.4712         calculate D2E/DX2 analytically  !
 ! A12   A(7,5,8)              109.4712         calculate D2E/DX2 analytically  !
 ! D1    D(2,1,5,6)             59.9989         calculate D2E/DX2 analytically  !
 ! D2    D(2,1,5,7)            179.9989         calculate D2E/DX2 analytically  !
 ! D3    D(2,1,5,8)            -60.0011         calculate D2E/DX2 analytically  !
 ! D4    D(3,1,5,6)            -60.0011         calculate D2E/DX2 analytically  !
 ! D5    D(3,1,5,7)             59.9989         calculate D2E/DX2 analytically  !
 ! D6    D(3,1,5,8)            179.9989         calculate D2E/DX2 analytically  !
 ! D7    D(4,1,5,6)            179.9989         calculate D2E/DX2 analytically  !
 ! D8    D(4,1,5,7)            -60.0011         calculate D2E/DX2 analytically  !
 ! D9    D(4,1,5,8)             59.9989         calculate D2E/DX2 analytically  !
 --------------------------------------------------------------------------------
 Trust Radius=3.00D-01 FncErr=1.00D-07 GrdErr=1.00D-06 EigMax=2.50D+02 EigMin=1.00D-04
 Number of steps in this run=    100 maximum allowed number of steps=    100.
 GradGradGradGradGradGradGradGradGradGradGradGradGradGradGradGradGradGrad

                          Input orientation:                          
 ---------------------------------------------------------------------
 Center     Atomic      Atomic             Coordinates (Angstroms)
 Number     Number       Type             X           Y           Z
 ---------------------------------------------------------------------
      1          6           0       -0.818112    0.305785   -0.010710
      2          1           0       -0.461457   -0.703025   -0.010710
      3          1           0       -0.461439    0.810183   -0.884361
      4          1           0       -1.888112    0.305798   -0.010710
      5          6           0       -0.304770    1.031741    1.246695
      6          1           0        0.765231    1.031711    1.246705
      7          1           0       -0.661408    2.040557    1.246686
      8          1           0       -0.661458    0.527354    2.120347
 ---------------------------------------------------------------------
                    Distance matrix (angstroms):
                    1          2          3          4          5
     1  C    0.000000
     2  H    1.070000   0.000000
     3  H    1.070000   1.747302   0.000000
     4  H    1.070000   1.747303   1.747303   0.000000
     5  C    1.540000   2.148263   2.148263   2.148263   0.000000
     6  H    2.148263   2.468838   2.468853   3.024610   1.070000
     7  H    2.148263   3.024610   2.468839   2.468852   1.070000
     8  H    2.148263   2.468853   3.024611   2.468839   1.070000
                    6          7          8
     6  H    0.000000
     7  H    1.747303   0.000000
     8  H    1.747303   1.747303   0.000000
 Symmetry turned off by external request.
 Stoichiometry    C2H6
 Framework group  D3[C3(C.C),X(H6)]
 Deg. of freedom     4
 Full point group                 D3      NOp   6
 Rotational constants (GHZ):          82.1231806          20.2293857          20.2293845
 Standard basis: 6-311G(2d,d,p) (5D, 7F)
    72 basis functions,   112 primitive gaussians,    74 cartesian basis functions
     9 alpha electrons        9 beta electrons
       nuclear repulsion energy        42.6703219817 Hartrees.
 NAtoms=    8 NActive=    8 NUniq=    8 SFac= 1.00D+00 NAtFMM=   60 NAOKFM=F Big=F
 Integral buffers will be    131072 words long.
 Raffenetti 2 integral format.
 Two-electron integral symmetry is turned off.
 One-electron integrals computed using PRISM.
 NBasis=    72 RedAO= T EigKep=  3.76D-03  NBF=    72
 NBsUse=    72 1.00D-06 EigRej= -1.00D+00 NBFU=    72
 ExpMin= 1.03D-01 ExpMax= 4.56D+03 ExpMxC= 6.82D+02 IAcc=3 IRadAn=         5 AccDes= 0.00D+00
 Harris functional with IExCor=  402 and IRadAn=       5 diagonalized for initial guess.
 HarFok:  IExCor=  402 AccDes= 0.00D+00 IRadAn=         5 IDoV= 1 UseB2=F ITyADJ=14
 ICtDFT=  3500011 ScaDFX=  1.000000  1.000000  1.000000  1.000000
 FoFCou: FMM=F IPFlag=           0 FMFlag=      100000 FMFlg1=           0
         NFxFlg=           0 DoJE=T BraDBF=F KetDBF=T FulRan=T
         wScrn=  0.000000 ICntrl=       500 IOpCl=  0 I1Cent=   200000004 NGrid=           0
         NMat0=    1 NMatS0=      1 NMatT0=    0 NMatD0=    1 NMtDS0=    0 NMtDT0=    0
 Symmetry not used in FoFCou.
 Keep R1 ints in memory in canonical form, NReq=28553792.
 Requested convergence on RMS density matrix=1.00D-08 within 128 cycles.
 Requested convergence on MAX density matrix=1.00D-06.
 Requested convergence on             energy=1.00D-06.
 No special actions if energy rises.
 Integral accuracy reduced to 1.0D-05 until final iterations.
 Initial convergence to 1.0D-05 achieved.  Increase integral accuracy.
 SCF Done:  E(RB3LYP) =  -79.8534630280     A.U. after    9 cycles
            NFock=  9  Conv=0.12D-08     -V/T= 2.0033
 DoSCS=F DFT=T ScalE2(SS,OS)=  1.000000  1.000000
 Range of M.O.s used for correlation:     1    72
 NBasis=    72 NAE=     9 NBE=     9 NFC=     0 NFV=     0
 NROrb=     72 NOA=     9 NOB=     9 NVA=    63 NVB=    63
 Symmetrizing basis deriv contribution to polar:
 IMax=3 JMax=2 DiffMx= 0.00D+00
 G2DrvN: will do     9 centers at a time, making    1 passes.
 Calling FoFCou, ICntrl=  3107 FMM=F I1Cent=   0 AccDes= 0.00D+00.
 End of G2Drv F.D. properties file   721 does not exist.
 End of G2Drv F.D. properties file   722 does not exist.
 End of G2Drv F.D. properties file   788 does not exist.
          IDoAtm=11111111
          Differentiating once with respect to nuclear coordinates.
 Keep R1 ints in memory in canonical form, NReq=28463013.
          There are    27 degrees of freedom in the 1st order CPHF.  IDoFFX=6 NUNeed=     0.
     21 vectors produced by pass  0 Test12= 2.10D-15 3.70D-09 XBig12= 5.71D-02 7.93D-02.
 AX will form    21 AO Fock derivatives at one time.
     21 vectors produced by pass  1 Test12= 2.10D-15 3.70D-09 XBig12= 1.20D-03 9.12D-03.
     21 vectors produced by pass  2 Test12= 2.10D-15 3.70D-09 XBig12= 1.17D-05 9.07D-04.
     21 vectors produced by pass  3 Test12= 2.10D-15 3.70D-09 XBig12= 4.77D-08 7.20D-05.
     21 vectors produced by pass  4 Test12= 2.10D-15 3.70D-09 XBig12= 1.30D-10 4.69D-06.
      9 vectors produced by pass  5 Test12= 2.10D-15 3.70D-09 XBig12= 1.43D-13 1.22D-07.
 InvSVY:  IOpt=1 It=  1 EMax= 1.55D-15
 Solved reduced A of dimension   114 with    21 vectors.
 End of Minotr F.D. properties file   721 does not exist.
 End of Minotr F.D. properties file   722 does not exist.
 End of Minotr F.D. properties file   788 does not exist.

 **********************************************************************

            Population analysis using the SCF density.

 **********************************************************************

 Alpha  occ. eigenvalues --  -10.14930 -10.14909  -0.75777  -0.62041  -0.44340
 Alpha  occ. eigenvalues --   -0.44340  -0.35963  -0.35155  -0.35155
 Alpha virt. eigenvalues --    0.04949   0.09303   0.10770   0.10770   0.14083
 Alpha virt. eigenvalues --    0.14083   0.22023   0.31089   0.31089   0.32188
 Alpha virt. eigenvalues --    0.32188   0.33030   0.54500   0.58852   0.59717
 Alpha virt. eigenvalues --    0.59717   0.60973   0.60973   0.62022   0.76243
 Alpha virt. eigenvalues --    0.84623   0.95900   0.95900   1.26920   1.26920
 Alpha virt. eigenvalues --    1.46157   1.46157   1.46636   1.47638   1.47785
 Alpha virt. eigenvalues --    1.47785   1.49875   1.69720   1.71725   1.71725
 Alpha virt. eigenvalues --    1.84662   1.84662   1.95034   2.09455   2.09455
 Alpha virt. eigenvalues --    2.09635   2.32181   2.34397   2.34397   2.39187
 Alpha virt. eigenvalues --    2.39187   2.48002   2.55121   2.55121   2.61991
 Alpha virt. eigenvalues --    2.61991   2.65494   2.65494   2.75063   2.79996
 Alpha virt. eigenvalues --    3.14392   3.85212   3.85212   3.86511   3.86511
 Alpha virt. eigenvalues --    4.22202  23.92836  24.02376
          Condensed to atoms (all electrons):
               1          2          3          4          5          6
     1  C    4.842489   0.410624   0.410624   0.410624   0.355696  -0.037111
     2  H    0.410624   0.585900  -0.030660  -0.030660  -0.037111  -0.006761
     3  H    0.410624  -0.030660   0.585900  -0.030660  -0.037111  -0.006760
     4  H    0.410624  -0.030660  -0.030660   0.585900  -0.037111   0.009187
     5  C    0.355696  -0.037111  -0.037111  -0.037111   4.842489   0.410624
     6  H   -0.037111  -0.006761  -0.006760   0.009187   0.410624   0.585900
     7  H   -0.037111   0.009187  -0.006761  -0.006760   0.410624  -0.030660
     8  H   -0.037111  -0.006760   0.009187  -0.006761   0.410624  -0.030660
               7          8
     1  C   -0.037111  -0.037111
     2  H    0.009187  -0.006760
     3  H   -0.006761   0.009187
     4  H   -0.006760  -0.006761
     5  C    0.410624   0.410624
     6  H   -0.030660  -0.030660
     7  H    0.585900  -0.030660
     8  H   -0.030660   0.585900
 Mulliken charges:
               1
     1  C   -0.318724
     2  H    0.106241
     3  H    0.106241
     4  H    0.106241
     5  C   -0.318724
     6  H    0.106241
     7  H    0.106241
     8  H    0.106241
 Sum of Mulliken charges =  -0.00000
 Mulliken charges with hydrogens summed into heavy atoms:
               1
     1  C   -0.000000
     5  C    0.000000
 APT charges:
               1
     1  C   -0.815304
     2  H    0.189490
     3  H    0.253209
     4  H    0.388672
     5  C   -0.983330
     6  H    0.210872
     7  H    0.410053
     8  H    0.346339
 Sum of APT charges =  -0.00000
 APT charges with hydrogens summed into heavy atoms:
               1
     1  C    0.016066
     5  C   -0.016066
 Electronic spatial extent (au):  <R**2>=            181.7862
 Charge=             -0.0000 electrons
 Dipole moment (field-independent basis, Debye):
    X=              0.0000    Y=             -0.0000    Z=             -0.0000  Tot=              0.0000
 Quadrupole moment (field-independent basis, Debye-Ang):
   XX=            -14.9278   YY=            -15.0445   ZZ=            -15.5112
   XY=             -0.1650   XZ=             -0.2858   YZ=             -0.4042
 Traceless Quadrupole moment (field-independent basis, Debye-Ang):
   XX=              0.2333   YY=              0.1167   ZZ=             -0.3500
   XY=             -0.1650   XZ=             -0.2858   YZ=             -0.4042
 Octapole moment (field-independent basis, Debye-Ang**2):
  XXX=             25.1432  YYY=            -30.1835  ZZZ=            -28.7573  XYY=              8.2259
  XXY=             -9.7979  XXZ=             -8.9043  XZZ=              8.3553  YZZ=            -10.8728
  YYZ=             -9.8380  XYZ=             -0.0662
 Hexadecapole moment (field-independent basis, Debye-Ang**3):
 XXXX=            -62.9384 YYYY=            -82.4241 ZZZZ=           -106.4837 XXXY=             12.2117
 XXXZ=              7.5654 YYYX=             10.7805 YYYZ=            -30.6268 ZZZX=              6.2116
 ZZZY=            -33.2801 XXYY=            -25.1992 XXZZ=            -28.8294 YYZZ=            -33.0124
 XXYZ=             -9.9578 YYXZ=              2.0571 ZZXY=              4.3547
 N-N= 4.267032198168D+01 E-N=-2.697280213202D+02  KE= 7.959140995227D+01
  Exact polarizability:   0.000   0.000   0.000   0.000   0.000   0.000
 Approx polarizability:  30.990  -0.061  30.947  -0.105  -0.148  30.776
 SCFChk:  SCF convergence  1.15D-09 required  1.00D-08
 Entering OneElI...
 Calculate overlap and kinetic energy integrals
    NBasis =  74  MinDer = 2  MaxDer = 2
 Requested accuracy = 0.1000D-12
 PrmmSu-InSpLW:  IPartL=    0 NPrtUS=   28 NPrtUL=    1 DoSpLW=F IThBeg=    0 IThEnd=   27 NThAct=   28.
 PrsmSu:  NPrtUS=  28 ThrOK=T IAlg=1 NPAlg=1 LenDen=           0 ISkipM=0 DoSpLW=F IThBeg=    0 IThEnd=   27.
 Prism:   IPart=     0 DynPar=F LinDyn=F Incr=           1.
 PRISM was handed   287591907 working-precision words and   595 shell-pairs
 PRISM was handed   287591907 working-precision words and   595 shell-pairs
 PRISM was handed   287591907 working-precision words and   595 shell-pairs
 PRISM was handed   287591907 working-precision words and   595 shell-pairs
 PRISM was handed   287591907 working-precision words and   595 shell-pairs
 PRISM was handed   287591907 working-precision words and   595 shell-pairs
 PRISM was handed   287591907 working-precision words and   595 shell-pairs
 PRISM was handed   287591907 working-precision words and   595 shell-pairs
 PRISM was handed   287591907 working-precision words and   595 shell-pairs
 PRISM was handed   287591907 working-precision words and   595 shell-pairs
 PRISM was handed   287591907 working-precision words and   595 shell-pairs
 PRISM was handed   287591907 working-precision words and   595 shell-pairs
 PRISM was handed   287591907 working-precision words and   595 shell-pairs
 PRISM was handed   287591907 working-precision words and   595 shell-pairs
 PRISM was handed   287591907 working-precision words and   595 shell-pairs
 PRISM was handed   287591907 working-precision words and   595 shell-pairs
 PRISM was handed   287591907 working-precision words and   595 shell-pairs
 PRISM was handed   287591907 working-precision words and   595 shell-pairs
 PRISM was handed   287591907 working-precision words and   595 shell-pairs
 PRISM was handed   287591907 working-precision words and   595 shell-pairs
 PRISM was handed   287591907 working-precision words and   595 shell-pairs
 PRISM was handed   287591907 working-precision words and   595 shell-pairs
 PRISM was handed   287591907 working-precision words and   595 shell-pairs
 PRISM was handed   287591907 working-precision words and   595 shell-pairs
 PRISM was handed   287591907 working-precision words and   595 shell-pairs
 PRISM was handed   287591907 working-precision words and   595 shell-pairs
 PRISM was handed   287591907 working-precision words and   595 shell-pairs
 PRISM was handed   287591907 working-precision words and   595 shell-pairs
 IPart= 25 NShTot=          10 NBatch=           7 AvBLen=         1.4
 IPart= 21 NShTot=          13 NBatch=           9 AvBLen=         1.4
 IPart= 16 NShTot=          16 NBatch=          10 AvBLen=         1.6
 IPart= 12 NShTot=          18 NBatch=          10 AvBLen=         1.8
 IPart= 19 NShTot=          16 NBatch=          10 AvBLen=         1.6
 IPart= 15 NShTot=          18 NBatch=          10 AvBLen=         1.8
 IPart= 13 NShTot=          18 NBatch=          10 AvBLen=         1.8
 IPart= 24 NShTot=          10 NBatch=           7 AvBLen=         1.4
 IPart= 20 NShTot=          14 NBatch=          10 AvBLen=         1.4
 IPart= 14 NShTot=          18 NBatch=          10 AvBLen=         1.8
 IPart=  2 NShTot=          37 NBatch=          28 AvBLen=         1.3
 IPart=  1 NShTot=          42 NBatch=          32 AvBLen=         1.3
 IPart= 27 NShTot=          10 NBatch=           7 AvBLen=         1.4
 IPart=  4 NShTot=          33 NBatch=          24 AvBLen=         1.4
 IPart=  8 NShTot=          23 NBatch=          15 AvBLen=         1.5
 IPart= 26 NShTot=          10 NBatch=           7 AvBLen=         1.4
 IPart=  6 NShTot=          27 NBatch=          18 AvBLen=         1.5
 IPart= 18 NShTot=          16 NBatch=          10 AvBLen=         1.6
 IPart= 23 NShTot=          12 NBatch=           9 AvBLen=         1.3
 IPart=  9 NShTot=          23 NBatch=          15 AvBLen=         1.5
 IPart= 22 NShTot=          12 NBatch=           9 AvBLen=         1.3
 IPart=  3 NShTot=          35 NBatch=          26 AvBLen=         1.3
 IPart= 11 NShTot=          22 NBatch=          14 AvBLen=         1.6
 IPart=  7 NShTot=          27 NBatch=          18 AvBLen=         1.5
 IPart= 17 NShTot=          16 NBatch=          10 AvBLen=         1.6
 IPart=  5 NShTot=          33 NBatch=          24 AvBLen=         1.4
 IPart= 10 NShTot=          22 NBatch=          14 AvBLen=         1.6
 IPart=  0 NShTot=          44 NBatch=          34 AvBLen=         1.3
 PrSmSu:  NxtVal=             29.
 Entering OneElI...
 Calculate potential energy integrals
    NBasis =  74  MinDer = 2  MaxDer = 2
 Requested accuracy = 0.1000D-12
 PrmmSu-InSpLW:  IPartL=    0 NPrtUS=   28 NPrtUL=    1 DoSpLW=F IThBeg=    0 IThEnd=   27 NThAct=   28.
 PrsmSu:  NPrtUS=  28 ThrOK=T IAlg=1 NPAlg=1 LenDen=           0 ISkipM=0 DoSpLW=F IThBeg=    0 IThEnd=   27.
 Prism:   IPart=     0 DynPar=F LinDyn=F Incr=           1.
 PRISM was handed   287592930 working-precision words and   595 shell-pairs
 PRISM was handed   287592930 working-precision words and   595 shell-pairs
 PRISM was handed   287592930 working-precision words and   595 shell-pairs
 PRISM was handed   287592930 working-precision words and   595 shell-pairs
 PRISM was handed   287592930 working-precision words and   595 shell-pairs
 PRISM was handed   287592930 working-precision words and   595 shell-pairs
 PRISM was handed   287592930 working-precision words and   595 shell-pairs
 PRISM was handed   287592930 working-precision words and   595 shell-pairs
 PRISM was handed   287592930 working-precision words and   595 shell-pairs
 PRISM was handed   287592930 working-precision words and   595 shell-pairs
 PRISM was handed   287592930 working-precision words and   595 shell-pairs
 PRISM was handed   287592930 working-precision words and   595 shell-pairs
 PRISM was handed   287592930 working-precision words and   595 shell-pairs
 PRISM was handed   287592930 working-precision words and   595 shell-pairs
 PRISM was handed   287592930 working-precision words and   595 shell-pairs
 PRISM was handed   287592930 working-precision words and   595 shell-pairs
 PRISM was handed   287592930 working-precision words and   595 shell-pairs
 PRISM was handed   287592930 working-precision words and   595 shell-pairs
 PRISM was handed   287592930 working-precision words and   595 shell-pairs
 PRISM was handed   287592930 working-precision words and   595 shell-pairs
 PRISM was handed   287592930 working-precision words and   595 shell-pairs
 PRISM was handed   287592930 working-precision words and   595 shell-pairs
 PRISM was handed   287592930 working-precision words and   595 shell-pairs
 PRISM was handed   287592930 working-precision words and   595 shell-pairs
 PRISM was handed   287592930 working-precision words and   595 shell-pairs
 PRISM was handed   287592930 working-precision words and   595 shell-pairs
 PRISM was handed   287592930 working-precision words and   595 shell-pairs
 PRISM was handed   287592930 working-precision words and   595 shell-pairs
 IPart= 25 NShTot=          80 NBatch=          10 AvBLen=         8.0
 IPart= 24 NShTot=          88 NBatch=          11 AvBLen=         8.0
 IPart=  9 NShTot=         184 NBatch=          23 AvBLen=         8.0
 IPart= 23 NShTot=         104 NBatch=          13 AvBLen=         8.0
 IPart= 26 NShTot=          80 NBatch=          10 AvBLen=         8.0
 IPart= 18 NShTot=         128 NBatch=          16 AvBLen=         8.0
 IPart=  3 NShTot=         280 NBatch=          35 AvBLen=         8.0
 IPart=  2 NShTot=         288 NBatch=          36 AvBLen=         8.0
 IPart= 21 NShTot=         104 NBatch=          13 AvBLen=         8.0
 IPart=  1 NShTot=         328 NBatch=          41 AvBLen=         8.0
 IPart=  4 NShTot=         264 NBatch=          33 AvBLen=         8.0
 IPart= 27 NShTot=          80 NBatch=          10 AvBLen=         8.0
 IPart=  7 NShTot=         216 NBatch=          27 AvBLen=         8.0
 IPart=  5 NShTot=         264 NBatch=          33 AvBLen=         8.0
 IPart= 10 NShTot=         176 NBatch=          22 AvBLen=         8.0
 IPart= 13 NShTot=         144 NBatch=          18 AvBLen=         8.0
 IPart= 14 NShTot=         144 NBatch=          18 AvBLen=         8.0
 IPart= 22 NShTot=         104 NBatch=          13 AvBLen=         8.0
 IPart= 17 NShTot=         128 NBatch=          16 AvBLen=         8.0
 IPart=  6 NShTot=         216 NBatch=          27 AvBLen=         8.0
 IPart= 15 NShTot=         144 NBatch=          18 AvBLen=         8.0
 IPart= 20 NShTot=         112 NBatch=          14 AvBLen=         8.0
 IPart= 12 NShTot=         144 NBatch=          18 AvBLen=         8.0
 IPart= 16 NShTot=         128 NBatch=          16 AvBLen=         8.0
 IPart=  8 NShTot=         184 NBatch=          23 AvBLen=         8.0
 IPart= 19 NShTot=         128 NBatch=          16 AvBLen=         8.0
 IPart= 11 NShTot=         176 NBatch=          22 AvBLen=         8.0
 IPart=  0 NShTot=         344 NBatch=          43 AvBLen=         8.0
 PrSmSu:  NxtVal=             29.
 Polarizability after L701:
                1             2             3 
      1  0.000000D+00
      2  0.000000D+00  0.000000D+00
      3  0.000000D+00  0.000000D+00  0.000000D+00
 Dipole Derivatives after L701:
                 1             2             3             4             5 
      1  -0.102905D+01 -0.664104D-01 -0.115028D+00  0.331511D-01  0.162186D+00
      2   0.127824D+00 -0.801324D+00  0.313098D+00 -0.128276D+00  0.421814D+00
      3   0.149648D+00  0.211628D+00 -0.615538D+00  0.113970D-01  0.657644D-02
                 6             7             8             9            10 
      1  -0.993920D-03  0.331514D-01 -0.819483D-01  0.139953D+00  0.948491D+00
      2  -0.185423D-01  0.147373D+00  0.299511D+00 -0.275329D+00 -0.129939D+00
      3   0.113507D+00 -0.147752D+00 -0.208948D+00  0.426963D+00  0.240165D-02
                11            12            13            14            15 
      1  -0.339891D-01 -0.588538D-01 -0.879945D+00  0.144450D+00  0.250198D+00
      2   0.104016D+00  0.223711D-01 -0.497833D-01 -0.105249D+01 -0.121943D+00
      3   0.129370D-01  0.113507D+00 -0.144775D-01 -0.204726D-01 -0.101755D+01
                16            17            18            19            20 
      1   0.475829D+00 -0.143864D-01 -0.248949D-01  0.209175D+00 -0.276907D+00
      2   0.433068D+00  0.806518D-01 -0.180695D-01 -0.337944D+00  0.944855D+00
      3   0.522678D+00 -0.865686D-02  0.761360D-01 -0.182356D+00  0.489902D+00
                21            22            23            24 
      1   0.329628D-01  0.209199D+00  0.167004D+00 -0.223344D+00
      2  -0.589971D-01 -0.623226D-01  0.296936D-02  0.157411D+00
      3   0.761277D-01 -0.341538D+00 -0.482966D+00  0.826847D+00
 Hessian after L701:
                1             2             3             4             5 
      1  0.856237D+01
      2 -0.405732D+00  0.827549D+01
      3 -0.702758D+00 -0.993825D+00  0.712790D+01
      4 -0.233052D+01 -0.541628D+00  0.261917D-02  0.231427D+01
      5 -0.566633D+00 -0.945746D+00 -0.143610D-01  0.571002D+00  0.737600D+00
      6 -0.118167D-01  0.264713D-01 -0.252762D+01  0.272524D-01 -0.847239D-01
      7 -0.233050D+01  0.273092D+00 -0.467776D+00  0.323985D-01  0.958640D-02
      8  0.273092D+00 -0.213741D+01 -0.661518D+00 -0.183158D-01 -0.546767D-02
      9 -0.496649D+00 -0.702350D+00 -0.133598D+01  0.495870D-03  0.162417D-01
     10 -0.751317D+00 -0.834307D-02 -0.144132D-01  0.148329D-02  0.137907D-01
     11  0.166614D-01 -0.252495D+01 -0.231744D-02  0.512618D-01  0.244810D-01
     12  0.288960D-01 -0.231785D-02 -0.252762D+01 -0.417428D-02  0.532342D-02
     13 -0.326449D+01  0.684277D+00  0.118521D+01 -0.436235D-02 -0.155440D-01
     14  0.684277D+00 -0.278067D+01  0.167610D+01 -0.428665D-01  0.118477D+00
     15  0.118521D+01  0.167610D+01 -0.845239D+00 -0.112939D-01  0.502924D-01
     16  0.123185D+00  0.295453D-01  0.511813D-01 -0.297848D-02  0.576674D-02
     17  0.222256D-02 -0.907127D-02  0.611396D-02 -0.838950D-02 -0.390573D-02
     18  0.385768D-02  0.611537D-02 -0.200834D-02 -0.538041D-02 -0.739703D-02
     19 -0.436306D-02 -0.428644D-01 -0.112927D-01 -0.159746D-01 -0.136628D-01
     20 -0.155422D-01  0.118478D+00  0.502916D-01 -0.136632D-01  0.792271D-01
     21  0.448059D-02  0.567327D-02 -0.200951D-02 -0.604731D-02  0.333003D-01
     22 -0.436057D-02  0.116528D-01 -0.427748D-01  0.568718D-02 -0.430646D-02
     23  0.116533D-01  0.387695D-02 -0.604865D-01  0.259915D-02 -0.466506D-02
     24 -0.112244D-01 -0.158699D-01  0.112589D+00 -0.347157D-02  0.132401D-02
                6             7             8             9            10 
      6  0.249504D+01
      7 -0.156132D-01  0.231425D+01
      8  0.393528D-01 -0.261910D+00  0.212906D+01
      9  0.266296D-01  0.508153D+00  0.718619D+00  0.110360D+01
     10  0.641030D-02  0.148215D-02 -0.134344D-02  0.151481D-01  0.553885D+00
     11 -0.216122D-02 -0.292456D-01  0.254486D-01  0.588108D-02 -0.513384D-01
     12  0.275960D-01  0.423066D-01 -0.160369D-02  0.266296D-01 -0.889620D-01
     13  0.448013D-02 -0.436130D-02  0.116528D-01 -0.112226D-01  0.123185D+00
     14  0.567459D-02  0.116528D-01  0.387764D-02 -0.158711D-01  0.295473D-01
     15 -0.200874D-02 -0.427723D-01 -0.604882D-01  0.112589D+00  0.511801D-01
     16 -0.518083D-02 -0.297854D-02 -0.736978D-02  0.240557D-02  0.772377D-01
     17 -0.753818D-02 -0.464329D-03  0.400064D-02 -0.283189D-02  0.192885D-01
     18 -0.198618D-02 -0.995438D-02 -0.297278D-02 -0.989124D-02  0.334127D-01
     19 -0.604720D-02  0.568782D-02  0.259914D-02 -0.347129D-02 -0.297841D-02
     20  0.333006D-01 -0.430621D-02 -0.466513D-02  0.132238D-02  0.576817D-02
     21 -0.775207D-02  0.515217D-03 -0.103773D-01 -0.989302D-02 -0.518000D-02
     22  0.515082D-03 -0.159739D-01  0.159479D-02 -0.148590D-01 -0.297860D-02
     23 -0.103761D-01  0.159469D-02 -0.148467D-01 -0.210115D-01 -0.736980D-02
     24 -0.989128D-02 -0.148586D-01 -0.210118D-01  0.863209D-01  0.240393D-02
               11            12            13            14            15 
     11  0.249798D+01
     12 -0.254584D-02  0.249504D+01
     13  0.222501D-02  0.385632D-02  0.856237D+01
     14 -0.907050D-02  0.611538D-02 -0.405732D+00  0.827549D+01
     15  0.611486D-02 -0.200912D-02 -0.702758D+00 -0.993824D+00  0.712790D+01
     16  0.192889D-01  0.334125D-01 -0.751317D+00 -0.837186D-02 -0.143975D-01
     17 -0.139858D-01  0.539751D-02  0.166331D-01 -0.252495D+01 -0.231694D-02
     18  0.539771D-02 -0.775153D-02  0.289115D-01 -0.231827D-02 -0.252762D+01
     19 -0.838854D-02 -0.537956D-02 -0.233054D+01 -0.541607D+00  0.262414D-02
     20 -0.390481D-02 -0.739584D-02 -0.566611D+00 -0.945729D+00 -0.143765D-01
     21 -0.753699D-02 -0.198597D-02 -0.118110D-01  0.264564D-01 -0.252762D+01
     22 -0.464585D-03 -0.995562D-02 -0.233048D+01  0.273099D+00 -0.467797D+00
     23  0.400128D-02 -0.297309D-02  0.273099D+00 -0.213743D+01 -0.661504D+00
     24 -0.283217D-02 -0.989300D-02 -0.496671D+00 -0.702335D+00 -0.133598D+01
               16            17            18            19            20 
     16  0.553885D+00
     17 -0.513074D-01  0.249798D+01
     18 -0.889790D-01 -0.254425D-02  0.249504D+01
     19  0.148426D-02  0.512621D-01 -0.417477D-02  0.231428D+01
     20  0.137911D-01  0.244801D-01  0.532362D-02  0.570978D+00  0.737580D+00
     21  0.640996D-02 -0.216083D-02  0.275960D-01  0.272451D-01 -0.847079D-01
     22  0.148118D-02 -0.292450D-01  0.423066D-01  0.323985D-01  0.958558D-02
     23 -0.134295D-02  0.254491D-01 -0.160436D-02 -0.183168D-01 -0.546721D-02
     24  0.151480D-01  0.588064D-02  0.266301D-01  0.496266D-03  0.162420D-01
               21            22            23            24 
     21  0.249504D+01
     22 -0.156126D-01  0.231423D+01
     23  0.393530D-01 -0.261916D+00  0.212908D+01
     24  0.266292D-01  0.508177D+00  0.718602D+00  0.110360D+01
 ICntrl=    100147.
 Calling FoFJK, ICntrl=    100147 FMM=F ISym2X=0 I1Cent= 0 IOpClX= 0 NMat=1 NMatS=1 NMatT=0.
 FoFJK:  IHMeth= 1 ICntrl=  100147 DoSepK=F KAlg= 0 I1Cent=           0 FoldK=F
 IRaf=         0 NMat=       1 IRICut=       1 DoRegI=T DoRafI=F ISym2E= 0 IDoP0=0 IntGTp=1.
 FoFCou: FMM=F IPFlag=           0 FMFlag=      100000 FMFlg1=         800
         NFxFlg=           0 DoJE=F BraDBF=F KetDBF=F FulRan=T
         wScrn=  0.000000 ICntrl=    100147 IOpCl=  0 I1Cent=           0 NGrid=           0
         NMat0=    1 NMatS0=      1 NMatT0=    0 NMatD0=    1 NMtDS0=    0 NMtDT0=    0
 Symmetry not used in FoFCou.
 FoFCou:  KetSym=F NOpSet=  1 NOpAb=1 NOp=  1.
 FoFCou:  CnvScl= 1.00D+00 Thresh= 1.00D-08 IAcrcy=      12.
 PrismS was handed  8053013698 working-precision words and   595 shell-pairs
 FoFCou: LinMIO=F DoNuc=F BraDBF=F KetDBF=F HaveP=T PDBF=F HaveZ=T HaveW=F
         NIJTC =      10 NIJTAt=       0 NIJTCD=       0 NIJTT =      10
         IJTBeg=       1 IJTEnd=      10 KLTBeg=       1 KLTEnd=      10
         IPTBeg=       1 IPTEnd=      10 IPTBCv=       1 IPTECv=      10
         IZTBeg=       1 IZTEnd=      10 IZTBCv=       1 IZTECv=      10
         IWTBeg=      11 IWTEnd=      10 IWTBCv=      11 IWTECv=      10
         INTBeg=       1 INTEnd=       0 IFTBCv=       1 IFTECv=      10
 NCel replicated for PrismC:     1
 CoulSu-InSpLW:  IPartL=    0 NPrtUS=   28 NPrtUL=    1 DoSpLW=F IThBeg=    0 IThEnd=   27 NThAct=   28.
 CoulSu:  IncDef=  1024 NBBP=         177310 NTPThr=   100 NPartT=   28 Incr=          63 LDynOK=F GPUOK=T.
 CoulSu:  NPrtUS=  28 ThrOK=T IAlg=1 NPAlg=1 LenDen=           0 LWGrdD=           0 DoCopy=F ISkipM=0
          DoSpLW=F IThBeg=    0 IThEnd=   27.
 Enter PrismC:  IPart=  0 JobTyp=22 DoJE=F Cont=F.
 PrismC:  IPart=     0 DynPar=F LinDyn=F Incr=          63 UseFst=F UseS4=T ISplat=2.
 Enter PrismC:  IPart=  6 JobTyp=22 DoJE=F Cont=F.
 PrismC was handed   287593047 working-precision words and   595 shell-pairs
 PrismC:  IPart=     6 DynPar=F LinDyn=F Incr=          63 UseFst=F UseS4=T ISplat=2.
 PrismC was handed   287593047 working-precision words and   595 shell-pairs
 Enter PrismC:  IPart=  2 JobTyp=22 DoJE=F Cont=F.
 Enter PrismC:  IPart= 18 JobTyp=22 DoJE=F Cont=F.
 PrismC:  IPart=     2 DynPar=F LinDyn=F Incr=          63 UseFst=F UseS4=T ISplat=2.
 PrismC was handed   287593047 working-precision words and   595 shell-pairs
 PrismC:  IPart=    18 DynPar=F LinDyn=F Incr=          63 UseFst=F UseS4=T ISplat=2.
 PrismC was handed   287593047 working-precision words and   595 shell-pairs
 Enter PrismC:  IPart= 24 JobTyp=22 DoJE=F Cont=F.
 PrismC:  IPart=    24 DynPar=F LinDyn=F Incr=          63 UseFst=F UseS4=T ISplat=2.
 PrismC was handed   287593047 working-precision words and   595 shell-pairs
 Enter PrismC:  IPart= 21 JobTyp=22 DoJE=F Cont=F.
 PrismC:  IPart=    21 DynPar=F LinDyn=F Incr=          63 UseFst=F UseS4=T ISplat=2.
 Enter PrismC:  IPart= 23 JobTyp=22 DoJE=F Cont=F.
 PrismC was handed   287593047 working-precision words and   595 shell-pairs
 PrismC:  IPart=    23 DynPar=F LinDyn=F Incr=          63 UseFst=F UseS4=T ISplat=2.
 PrismC was handed   287593047 working-precision words and   595 shell-pairs
 Enter PrismC:  IPart= 11 JobTyp=22 DoJE=F Cont=F.
 PrismC:  IPart=    11 DynPar=F LinDyn=F Incr=          63 UseFst=F UseS4=T ISplat=2.
 PrismC was handed   287593047 working-precision words and   595 shell-pairs
 Enter PrismC:  IPart=  3 JobTyp=22 DoJE=F Cont=F.
 PrismC:  IPart=     3 DynPar=F LinDyn=F Incr=          63 UseFst=F UseS4=T ISplat=2.
 PrismC was handed   287593047 working-precision words and   595 shell-pairs
 Enter PrismC:  IPart= 15 JobTyp=22 DoJE=F Cont=F.
 Enter PrismC:  IPart=  7 JobTyp=22 DoJE=F Cont=F.
 Enter PrismC:  IPart=  8 JobTyp=22 DoJE=F Cont=F.
 PrismC:  IPart=    15 DynPar=F LinDyn=F Incr=          63 UseFst=F UseS4=T ISplat=2.
 PrismC was handed   287593047 working-precision words and   595 shell-pairs
 PrismC:  IPart=     7 DynPar=F LinDyn=F Incr=          63 UseFst=F UseS4=T ISplat=2.
 PrismC was handed   287593047 working-precision words and   595 shell-pairs
 PrismC:  IPart=     8 DynPar=F LinDyn=F Incr=          63 UseFst=F UseS4=T ISplat=2.
 PrismC was handed   287593047 working-precision words and   595 shell-pairs
 Enter PrismC:  IPart= 17 JobTyp=22 DoJE=F Cont=F.
 Enter PrismC:  IPart= 12 JobTyp=22 DoJE=F Cont=F.
 Enter PrismC:  IPart=  9 JobTyp=22 DoJE=F Cont=F.
 PrismC:  IPart=    12 DynPar=F LinDyn=F Incr=          63 UseFst=F UseS4=T ISplat=2.
 PrismC:  IPart=    17 DynPar=F LinDyn=F Incr=          63 UseFst=F UseS4=T ISplat=2.
 PrismC was handed   287593047 working-precision words and   595 shell-pairs
 PrismC:  IPart=     9 DynPar=F LinDyn=F Incr=          63 UseFst=F UseS4=T ISplat=2.
 PrismC was handed   287593047 working-precision words and   595 shell-pairs
 PrismC was handed   287593047 working-precision words and   595 shell-pairs
 Enter PrismC:  IPart=  1 JobTyp=22 DoJE=F Cont=F.
 Enter PrismC:  IPart=  5 JobTyp=22 DoJE=F Cont=F.
 Enter PrismC:  IPart= 14 JobTyp=22 DoJE=F Cont=F.
 Enter PrismC:  IPart= 10 JobTyp=22 DoJE=F Cont=F.
 Enter PrismC:  IPart= 25 JobTyp=22 DoJE=F Cont=F.
 PrismC:  IPart=     1 DynPar=F LinDyn=F Incr=          63 UseFst=F UseS4=T ISplat=2.
 PrismC:  IPart=    14 DynPar=F LinDyn=F Incr=          63 UseFst=F UseS4=T ISplat=2.
 PrismC was handed   287593047 working-precision words and   595 shell-pairs
 PrismC was handed   287593047 working-precision words and   595 shell-pairs
 PrismC:  IPart=     5 DynPar=F LinDyn=F Incr=          63 UseFst=F UseS4=T ISplat=2.
 PrismC was handed   287593047 working-precision words and   595 shell-pairs
 PrismC:  IPart=    25 DynPar=F LinDyn=F Incr=          63 UseFst=F UseS4=T ISplat=2.
 PrismC was handed   287593047 working-precision words and   595 shell-pairs
 PrismC:  IPart=    10 DynPar=F LinDyn=F Incr=          63 UseFst=F UseS4=T ISplat=2.
 PrismC was handed   287593047 working-precision words and   595 shell-pairs
 Enter PrismC:  IPart=  4 JobTyp=22 DoJE=F Cont=F.
 Enter PrismC:  IPart= 20 JobTyp=22 DoJE=F Cont=F.
 PrismC:  IPart=     4 DynPar=F LinDyn=F Incr=          63 UseFst=F UseS4=T ISplat=2.
 PrismC was handed   287593047 working-precision words and   595 shell-pairs
 PrismC:  IPart=    20 DynPar=F LinDyn=F Incr=          63 UseFst=F UseS4=T ISplat=2.
 PrismC was handed   287593047 working-precision words and   595 shell-pairs
 Enter PrismC:  IPart= 27 JobTyp=22 DoJE=F Cont=F.
 PrismC:  IPart=    27 DynPar=F LinDyn=F Incr=          63 UseFst=F UseS4=T ISplat=2.
 PrismC was handed   287593047 working-precision words and   595 shell-pairs
 Enter PrismC:  IPart= 16 JobTyp=22 DoJE=F Cont=F.
 Enter PrismC:  IPart= 19 JobTyp=22 DoJE=F Cont=F.
 PrismC:  IPart=    16 DynPar=F LinDyn=F Incr=          63 UseFst=F UseS4=T ISplat=2.
 PrismC was handed   287593047 working-precision words and   595 shell-pairs
 Enter PrismC:  IPart= 13 JobTyp=22 DoJE=F Cont=F.
 PrismC:  IPart=    19 DynPar=F LinDyn=F Incr=          63 UseFst=F UseS4=T ISplat=2.
 PrismC was handed   287593047 working-precision words and   595 shell-pairs
 PrismC:  IPart=    13 DynPar=F LinDyn=F Incr=          63 UseFst=F UseS4=T ISplat=2.
 PrismC was handed   287593047 working-precision words and   595 shell-pairs
 Enter PrismC:  IPart= 22 JobTyp=22 DoJE=F Cont=F.
 Enter PrismC:  IPart= 26 JobTyp=22 DoJE=F Cont=F.
 PrismC:  IPart=    22 DynPar=F LinDyn=F Incr=          63 UseFst=F UseS4=T ISplat=2.
 PrismC:  IPart=    26 DynPar=F LinDyn=F Incr=          63 UseFst=F UseS4=T ISplat=2.
 PrismC was handed   287593047 working-precision words and   595 shell-pairs
 PrismC was handed   287593047 working-precision words and   595 shell-pairs
 IPart= 24 NShTot=        5754 NShNF=        5754 NShFF=           0 MinMC=       7
           NShCPU=        5754 NBCPU=         426 AvBCPU=        13.5
           NShGPU=           0 NBGPU=           0 AvBGPU=         0.0
 IPart= 23 NShTot=        5826 NShNF=        5826 NShFF=           0 MinMC=       7
           NShCPU=        5826 NBCPU=         451 AvBCPU=        12.9
           NShGPU=           0 NBGPU=           0 AvBGPU=         0.0
 IPart= 21 NShTot=        5897 NShNF=        5897 NShFF=           0 MinMC=       7
           NShCPU=        5897 NBCPU=         456 AvBCPU=        12.9
           NShGPU=           0 NBGPU=           0 AvBGPU=         0.0
 IPart= 25 NShTot=        5821 NShNF=        5821 NShFF=           0 MinMC=       7
           NShCPU=        5821 NBCPU=         427 AvBCPU=        13.6
           NShGPU=           0 NBGPU=           0 AvBGPU=         0.0
 IPart= 18 NShTot=        5925 NShNF=        5925 NShFF=           0 MinMC=       7
           NShCPU=        5925 NBCPU=         466 AvBCPU=        12.7
           NShGPU=           0 NBGPU=           0 AvBGPU=         0.0
 IPart= 27 NShTot=        5773 NShNF=        5773 NShFF=           0 MinMC=       7
           NShCPU=        5773 NBCPU=         424 AvBCPU=        13.6
           NShGPU=           0 NBGPU=           0 AvBGPU=         0.0
 IPart= 26 NShTot=        5800 NShNF=        5800 NShFF=           0 MinMC=       7
           NShCPU=        5800 NBCPU=         431 AvBCPU=        13.5
           NShGPU=           0 NBGPU=           0 AvBGPU=         0.0
 IPart= 20 NShTot=        5823 NShNF=        5823 NShFF=           0 MinMC=       7
           NShCPU=        5823 NBCPU=         448 AvBCPU=        13.0
           NShGPU=           0 NBGPU=           0 AvBGPU=         0.0
 IPart= 22 NShTot=        5831 NShNF=        5831 NShFF=           0 MinMC=       7
           NShCPU=        5831 NBCPU=         452 AvBCPU=        12.9
           NShGPU=           0 NBGPU=           0 AvBGPU=         0.0
 IPart= 17 NShTot=        5980 NShNF=        5980 NShFF=           0 MinMC=       7
           NShCPU=        5980 NBCPU=         469 AvBCPU=        12.8
           NShGPU=           0 NBGPU=           0 AvBGPU=         0.0
 IPart= 16 NShTot=        5908 NShNF=        5908 NShFF=           0 MinMC=       7
           NShCPU=        5908 NBCPU=         465 AvBCPU=        12.7
           NShGPU=           0 NBGPU=           0 AvBGPU=         0.0
 IPart= 14 NShTot=        6023 NShNF=        6023 NShFF=           0 MinMC=       7
           NShCPU=        6023 NBCPU=         493 AvBCPU=        12.2
           NShGPU=           0 NBGPU=           0 AvBGPU=         0.0
 IPart= 19 NShTot=        5915 NShNF=        5915 NShFF=           0 MinMC=       7
           NShCPU=        5915 NBCPU=         463 AvBCPU=        12.8
           NShGPU=           0 NBGPU=           0 AvBGPU=         0.0
 IPart= 11 NShTot=        6046 NShNF=        6046 NShFF=           0 MinMC=       7
           NShCPU=        6046 NBCPU=         500 AvBCPU=        12.1
           NShGPU=           0 NBGPU=           0 AvBGPU=         0.0
 IPart= 15 NShTot=        5990 NShNF=        5990 NShFF=           0 MinMC=       7
           NShCPU=        5990 NBCPU=         484 AvBCPU=        12.4
           NShGPU=           0 NBGPU=           0 AvBGPU=         0.0
 IPart= 12 NShTot=        5971 NShNF=        5971 NShFF=           0 MinMC=       7
           NShCPU=        5971 NBCPU=         484 AvBCPU=        12.3
           NShGPU=           0 NBGPU=           0 AvBGPU=         0.0
 IPart= 10 NShTot=        6067 NShNF=        6067 NShFF=           0 MinMC=       7
           NShCPU=        6067 NBCPU=         509 AvBCPU=        11.9
           NShGPU=           0 NBGPU=           0 AvBGPU=         0.0
 IPart= 13 NShTot=        6072 NShNF=        6072 NShFF=           0 MinMC=       7
           NShCPU=        6072 NBCPU=         490 AvBCPU=        12.4
           NShGPU=           0 NBGPU=           0 AvBGPU=         0.0
 IPart=  8 NShTot=        6080 NShNF=        6080 NShFF=           0 MinMC=       7
           NShCPU=        6080 NBCPU=         511 AvBCPU=        11.9
           NShGPU=           0 NBGPU=           0 AvBGPU=         0.0
 IPart=  9 NShTot=        6132 NShNF=        6132 NShFF=           0 MinMC=       7
           NShCPU=        6132 NBCPU=         513 AvBCPU=        12.0
           NShGPU=           0 NBGPU=           0 AvBGPU=         0.0
 IPart=  6 NShTot=        6174 NShNF=        6174 NShFF=           0 MinMC=       7
           NShCPU=        6174 NBCPU=         529 AvBCPU=        11.7
           NShGPU=           0 NBGPU=           0 AvBGPU=         0.0
 IPart=  7 NShTot=        6170 NShNF=        6170 NShFF=           0 MinMC=       7
           NShCPU=        6170 NBCPU=         528 AvBCPU=        11.7
           NShGPU=           0 NBGPU=           0 AvBGPU=         0.0
 IPart=  2 NShTot=        6267 NShNF=        6267 NShFF=           0 MinMC=       7
           NShCPU=        6267 NBCPU=         563 AvBCPU=        11.1
           NShGPU=           0 NBGPU=           0 AvBGPU=         0.0
 IPart=  3 NShTot=        6252 NShNF=        6252 NShFF=           0 MinMC=       7
           NShCPU=        6252 NBCPU=         557 AvBCPU=        11.2
           NShGPU=           0 NBGPU=           0 AvBGPU=         0.0
 IPart=  5 NShTot=        6252 NShNF=        6252 NShFF=           0 MinMC=       7
           NShCPU=        6252 NBCPU=         549 AvBCPU=        11.4
           NShGPU=           0 NBGPU=           0 AvBGPU=         0.0
 IPart=  4 NShTot=        6171 NShNF=        6171 NShFF=           0 MinMC=       7
           NShCPU=        6171 NBCPU=         550 AvBCPU=        11.2
           NShGPU=           0 NBGPU=           0 AvBGPU=         0.0
 IPart=  1 NShTot=        6323 NShNF=        6323 NShFF=           0 MinMC=       7
           NShCPU=        6323 NBCPU=         567 AvBCPU=        11.2
           NShGPU=           0 NBGPU=           0 AvBGPU=         0.0
 IPart=  0 NShTot=        6294 NShNF=        6294 NShFF=           0 MinMC=       7
           NShCPU=        6294 NBCPU=         581 AvBCPU=        10.8
           NShGPU=           0 NBGPU=           0 AvBGPU=         0.0
 CoulSu:  NxtVal=           1765 LenVP=      287593048 MinMC=       7.
 ReadGW:  IGet=0 IStart=           1 Next=           1 LGW=           0.
 Remaining memory in FofDFT     7679.99 Mw
 CkSvGd:  ISavGI=        -1 IRadAn=       5 IRASav=       5 ISavGd=        -1.
 CalDSu-InSpLW:  IPartL=    0 NPrtUS=   28 NPrtUL=    1 DoSpLW=F IThBeg=    0 IThEnd=   27 NThAct=   28.
 CalDSu:  NPrtUS=  28 ThrOK=T IAlg=1 NPAlg=2 DoDPD=T LenP=        2775 LenD1P=             0 GPUOK=F
          ISkipM=0 DoSpLW=F IThBeg=    0 IThEnd=   27.
 IPart=  0 IRanGd=          0 ScrnBf=T ScrnGd=T RCrit=4.00D+00 DoMicB=T.
 IPart= 27         6055 of         6672 points in       6 batches and       17 microbatches, Max-NSigAt=       8 Max-NSgAt2=       8
 IPart= 14         4856 of         5352 points in       6 batches and       44 microbatches, Max-NSigAt=       8 Max-NSgAt2=       8
 IPart= 10         5180 of         5724 points in       6 batches and       32 microbatches, Max-NSigAt=       8 Max-NSgAt2=       8
 IPart=  8         5840 of         6532 points in       7 batches and       41 microbatches, Max-NSigAt=       8 Max-NSgAt2=       8
 IPart=  1         5565 of         5928 points in       6 batches and       24 microbatches, Max-NSigAt=       8 Max-NSgAt2=       8
 IPart= 26         4787 of         5226 points in       4 batches and       36 microbatches, Max-NSigAt=       8 Max-NSgAt2=       8
 IPart= 24         5900 of         6588 points in       6 batches and       27 microbatches, Max-NSigAt=       8 Max-NSgAt2=       8
 IPart=  4         5467 of         5928 points in       6 batches and       32 microbatches, Max-NSigAt=       8 Max-NSgAt2=       8
 IPart= 21         5661 of         6616 points in       7 batches and       64 microbatches, Max-NSigAt=       8 Max-NSgAt2=       8
 IPart=  3         5686 of         5976 points in       5 batches and       31 microbatches, Max-NSigAt=       8 Max-NSgAt2=       8
 IPart= 12         5086 of         5956 points in       7 batches and       60 microbatches, Max-NSigAt=       8 Max-NSgAt2=       8
 IPart=  7         5864 of         6588 points in       6 batches and       31 microbatches, Max-NSigAt=       8 Max-NSgAt2=       8
 IPart= 23         5535 of         5802 points in       4 batches and       31 microbatches, Max-NSigAt=       8 Max-NSgAt2=       8
 IPart=  6         5808 of         6076 points in       5 batches and       26 microbatches, Max-NSigAt=       8 Max-NSgAt2=       8
 IPart= 18         5182 of         5942 points in       7 batches and       53 microbatches, Max-NSigAt=       8 Max-NSgAt2=       8
 IPart= 19         5563 of         5928 points in       6 batches and       37 microbatches, Max-NSigAt=       8 Max-NSgAt2=       8
 IPart= 13         5958 of         6504 points in       6 batches and       32 microbatches, Max-NSigAt=       8 Max-NSgAt2=       8
 IPart= 25         5206 of         5956 points in       7 batches and       59 microbatches, Max-NSigAt=       8 Max-NSgAt2=       8
 IPart= 11         6322 of         6778 points in       5 batches and       22 microbatches, Max-NSigAt=       8 Max-NSgAt2=       8
 IPart= 22         5981 of         6026 points in       4 batches and       15 microbatches, Max-NSigAt=       8 Max-NSgAt2=       8
 IPart= 16         5842 of         6406 points in       5 batches and       25 microbatches, Max-NSigAt=       8 Max-NSgAt2=       8
 IPart=  0         6985 of         7528 points in       6 batches and       20 microbatches, Max-NSigAt=       8 Max-NSgAt2=       8
 IPart= 17         5211 of         5956 points in       7 batches and       62 microbatches, Max-NSigAt=       8 Max-NSgAt2=       8
 IPart=  2         6152 of         6890 points in       7 batches and       47 microbatches, Max-NSigAt=       8 Max-NSgAt2=       8
 IPart= 15         6000 of         6560 points in       5 batches and       35 microbatches, Max-NSigAt=       8 Max-NSgAt2=       8
 IPart=  9         6824 of         7038 points in       4 batches and       15 microbatches, Max-NSigAt=       8 Max-NSgAt2=       8
 IPart= 20         6704 of         7164 points in       6 batches and       43 microbatches, Max-NSigAt=       8 Max-NSgAt2=       8
 IPart=  5         7715 of         7720 points in       4 batches and       18 microbatches, Max-NSigAt=       8 Max-NSgAt2=       8
 Polarizability after L703:
                1             2             3 
      1  0.000000D+00
      2  0.000000D+00  0.000000D+00
      3  0.000000D+00  0.000000D+00  0.000000D+00
 Dipole Derivatives after L703:
                 1             2             3             4             5 
      1  -0.102905D+01 -0.664104D-01 -0.115028D+00  0.331511D-01  0.162186D+00
      2   0.127824D+00 -0.801324D+00  0.313098D+00 -0.128276D+00  0.421814D+00
      3   0.149648D+00  0.211628D+00 -0.615538D+00  0.113970D-01  0.657644D-02
                 6             7             8             9            10 
      1  -0.993920D-03  0.331514D-01 -0.819483D-01  0.139953D+00  0.948491D+00
      2  -0.185423D-01  0.147373D+00  0.299511D+00 -0.275329D+00 -0.129939D+00
      3   0.113507D+00 -0.147752D+00 -0.208948D+00  0.426963D+00  0.240165D-02
                11            12            13            14            15 
      1  -0.339891D-01 -0.588538D-01 -0.879945D+00  0.144450D+00  0.250198D+00
      2   0.104016D+00  0.223711D-01 -0.497833D-01 -0.105249D+01 -0.121943D+00
      3   0.129370D-01  0.113507D+00 -0.144775D-01 -0.204726D-01 -0.101755D+01
                16            17            18            19            20 
      1   0.475829D+00 -0.143864D-01 -0.248949D-01  0.209175D+00 -0.276907D+00
      2   0.433068D+00  0.806518D-01 -0.180695D-01 -0.337944D+00  0.944855D+00
      3   0.522678D+00 -0.865686D-02  0.761360D-01 -0.182356D+00  0.489902D+00
                21            22            23            24 
      1   0.329628D-01  0.209199D+00  0.167004D+00 -0.223344D+00
      2  -0.589971D-01 -0.623226D-01  0.296936D-02  0.157411D+00
      3   0.761277D-01 -0.341538D+00 -0.482966D+00  0.826847D+00
 Hessian after L703:
                1             2             3             4             5 
      1  0.608060D+00
      2 -0.303150D-01  0.586638D+00
      3 -0.524970D-01 -0.742343D-01  0.500906D+00
      4 -0.799086D-01  0.999522D-01  0.946287D-03  0.808290D-01
      5  0.994388D-01 -0.318710D+00  0.444492D-02 -0.106549D+00  0.343348D+00
      6  0.651777D-03  0.528539D-02 -0.410367D-01  0.202652D-02  0.328290D-04
      7 -0.799092D-01 -0.491563D-01  0.870377D-01  0.354469D-02  0.503090D-02
      8 -0.491556D-01 -0.114668D+00  0.123088D+00 -0.120249D-01 -0.133307D-01
      9  0.864428D-01  0.122247D+00 -0.245076D+00 -0.113240D-02 -0.867497D-03
     10 -0.354838D+00  0.224104D-02  0.387598D-02 -0.925732D-02 -0.633241D-03
     11  0.275763D-02 -0.437815D-01  0.237479D-02  0.326926D-01  0.207662D-02
     12  0.476820D-02  0.237520D-02 -0.410357D-01 -0.235577D-03  0.147039D-03
     13 -0.914910D-01 -0.154246D-01 -0.267199D-01  0.407302D-02  0.454058D-02
     14 -0.154244D-01 -0.102406D+00 -0.377953D-01 -0.128648D-01 -0.147684D-01
     15 -0.267200D-01 -0.377952D-01 -0.146036D+00 -0.474367D-03 -0.100355D-02
     16 -0.100606D-01 -0.454475D-03 -0.788360D-03  0.561062D-03 -0.483843D-03
     17 -0.178640D-01 -0.634316D-03 -0.781613D-03 -0.230904D-03  0.308254D-03
     18 -0.309406D-01 -0.781451D-03 -0.154014D-02  0.745158D-03  0.446674D-03
     19  0.407292D-02 -0.128647D-01 -0.474209D-03 -0.115001D-05 -0.159345D-02
     20  0.454046D-02 -0.147683D-01 -0.100344D-02 -0.159349D-02  0.158325D-03
     21  0.957335D-02 -0.294301D-01 -0.153925D-02 -0.252075D-02 -0.307614D-02
     22  0.407398D-02  0.602191D-02 -0.113806D-01  0.159235D-03  0.249569D-03
     23  0.602198D-02  0.833133D-02 -0.160934D-01  0.618602D-03  0.918170D-03
     24  0.872144D-02  0.123331D-01 -0.246421D-01  0.645134D-03 -0.124278D-03
                6             7             8             9            10 
      6  0.452451D-01
      7 -0.109790D-01  0.808293D-01
      8  0.260235D-01  0.550299D-01  0.119742D+00
      9  0.119354D-02 -0.912641D-01 -0.129065D+00  0.268850D+00
     10  0.216823D-03 -0.925810D-02  0.504762D-03 -0.440202D-03  0.381149D+00
     11 -0.172624D-03 -0.165504D-01 -0.528279D-03 -0.135719D-02 -0.376391D-03
     12 -0.141247D-02  0.281954D-01 -0.167736D-02  0.119343D-02 -0.644840D-03
     13  0.957359D-02  0.407387D-02  0.602183D-02  0.872121D-02 -0.100606D-01
     14 -0.294299D-01  0.602199D-02  0.833144D-02  0.123333D-01 -0.454558D-03
     15 -0.153934D-02 -0.113804D-01 -0.160935D-01 -0.246421D-01 -0.788308D-03
     16  0.172642D-03  0.561248D-03  0.391601D-03 -0.332079D-03  0.114210D-02
     17  0.850841D-03  0.760556D-03  0.516495D-03  0.566952D-03 -0.118940D-02
     18  0.133558D-02  0.172400D-03  0.971648D-03  0.112752D-02 -0.205999D-02
     19 -0.252069D-02  0.159292D-03  0.618600D-03  0.645157D-03  0.560985D-03
     20 -0.307609D-02  0.249591D-03  0.918256D-03 -0.124262D-03 -0.483835D-03
     21 -0.491309D-02  0.858390D-03  0.486006D-03  0.112746D-02  0.172612D-03
     22  0.858381D-03 -0.108612D-05 -0.138625D-02 -0.264042D-02  0.561325D-03
     23  0.486019D-03 -0.138622D-02 -0.981234D-03 -0.373397D-02  0.391630D-03
     24  0.112737D-02 -0.264035D-02 -0.373402D-02 -0.377360D-02 -0.332073D-03
               11            12            13            14            15 
     11  0.430277D-01
     12  0.192046D-02  0.452448D-01
     13 -0.178638D-01 -0.309407D-01  0.608060D+00
     14 -0.634409D-03 -0.781739D-03 -0.303150D-01  0.586638D+00
     15 -0.781426D-03 -0.154004D-02 -0.524970D-01 -0.742343D-01  0.500906D+00
     16 -0.118936D-02 -0.206002D-02 -0.354838D+00  0.224595D-02  0.387323D-02
     17 -0.984919D-03 -0.340190D-02  0.276268D-02 -0.437815D-01  0.237485D-02
     18 -0.340183D-02 -0.491310D-02  0.476539D-02  0.237522D-02 -0.410357D-01
     19 -0.230887D-03  0.745163D-03 -0.799055D-01  0.999483D-01  0.945315D-03
     20  0.308186D-03  0.446645D-03  0.994351D-01 -0.318713D+00  0.444752D-02
     21  0.850836D-03  0.133550D-02  0.650823D-03  0.528808D-02 -0.410366D-01
     22  0.760561D-03  0.172382D-03 -0.799123D-01 -0.491574D-01  0.870415D-01
     23  0.516561D-03  0.971652D-03 -0.491567D-01 -0.114666D+00  0.123086D+00
     24  0.566981D-03  0.112761D-02  0.864465D-01  0.122245D+00 -0.245076D+00
               16            17            18            19            20 
     16  0.381149D+00
     17 -0.381725D-03  0.430279D-01
     18 -0.641847D-03  0.192053D-02  0.452446D-01
     19 -0.925680D-02  0.326928D-01 -0.235863D-03  0.808256D-01
     20 -0.633064D-03  0.207611D-02  0.147011D-03 -0.106545D+00  0.343351D+00
     21  0.216752D-03 -0.172343D-03 -0.141248D-02  0.202746D-02  0.299643D-04
     22 -0.925861D-02 -0.165500D-01  0.281953D-01  0.354469D-02  0.503057D-02
     23  0.504912D-03 -0.528038D-03 -0.167780D-02 -0.120254D-01 -0.133304D-01
     24 -0.440323D-03 -0.135732D-02  0.119370D-02 -0.113233D-02 -0.867348D-03
               21            22            23            24 
     21  0.452452D-01
     22 -0.109786D-01  0.808327D-01
     23  0.260237D-01  0.550311D-01  0.119739D+00
     24  0.119328D-02 -0.912680D-01 -0.129062D+00  0.268850D+00
 FrcOut:
 IF    =       305 IFX   =       333 IFXYZ =       357
 IFFX  =       381 IFFFX =       681 IFLen =        28
 IFFLen=       300 IFFFLn=         0 IEDerv=       681
 LEDerv=      1205 IFroze=      2192 ICStrt=     12801
 Dipole        = 3.95342781D-09-5.83007775D-08-1.03884474D-08
 DipoleDeriv   =-1.02905118D+00 1.27823932D-01 1.49647763D-01
                -6.64103850D-02-8.01324239D-01 2.11627503D-01
                -1.15027891D-01 3.13097844D-01-6.15537551D-01
                 3.31511424D-02-1.28275777D-01 1.13970244D-02
                 1.62186191D-01 4.21813587D-01 6.57643985D-03
                -9.93920397D-04-1.85422514D-02 1.13506718D-01
                 3.31514089D-02 1.47372537D-01-1.47752222D-01
                -8.19482974D-02 2.99510803D-01-2.08947916D-01
                 1.39952879D-01-2.75328594D-01 4.26963372D-01
                 9.48491093D-01-1.29938642D-01 2.40165078D-03
                -3.39890522D-02 1.04016426D-01 1.29369750D-02
                -5.88537683D-02 2.23711324D-02 1.13507352D-01
                -8.79945373D-01-4.97832614D-02-1.44775342D-02
                 1.44450463D-01-1.05249309D+00-2.04726351D-02
                 2.50198355D-01-1.21942919D-01-1.01755092D+00
                 4.75828921D-01 4.33067583D-01 5.22678272D-01
                -1.43864305D-02 8.06517681D-02-8.65686357D-03
                -2.48948682D-02-1.80695356D-02 7.61360168D-02
                 2.09174803D-01-3.37943754D-01-1.82356476D-01
                -2.76906611D-01 9.44855388D-01 4.89902006D-01
                 3.29628358D-02-5.89971344D-02 7.61276635D-02
                 2.09199182D-01-6.23226171D-02-3.41538478D-01
                 1.67004123D-01 2.96935936D-03-4.82965509D-01
                -2.23343621D-01 1.57411458D-01 8.26847353D-01
 Polarizability= 0.00000000D+00 0.00000000D+00 0.00000000D+00
                 0.00000000D+00 0.00000000D+00 0.00000000D+00
 Quadrupole    = 1.73486773D-01 8.67460562D-02-2.60232829D-01
                -1.22677452D-01-2.12484057D-01-3.00489499D-01
 -------------------------------------------------------------------
 Center     Atomic                   Forces (Hartrees/Bohr)
 Number     Number              X              Y              Z
 -------------------------------------------------------------------
      1        6           0.007862795    0.011119987    0.019260528
      2        1           0.003222307   -0.015193912   -0.003510147
      3        1           0.003222497    0.004557058   -0.014913259
      4        1          -0.015398862   -0.002026306   -0.003510052
      5        6          -0.007862808   -0.011120030   -0.019260573
      6        1           0.015398859    0.002026239    0.003510119
      7        1          -0.003222204    0.015193937    0.003510108
      8        1          -0.003222585   -0.004556972    0.014913275
 -------------------------------------------------------------------
 Cartesian Forces:  Max     0.019260573 RMS     0.010476618
 Force constants in Cartesian coordinates: 
                1             2             3             4             5 
      1  0.608060D+00
      2 -0.303150D-01  0.586638D+00
      3 -0.524970D-01 -0.742343D-01  0.500906D+00
      4 -0.799086D-01  0.999522D-01  0.946287D-03  0.808290D-01
      5  0.994388D-01 -0.318710D+00  0.444492D-02 -0.106549D+00  0.343348D+00
      6  0.651777D-03  0.528539D-02 -0.410367D-01  0.202652D-02  0.328290D-04
      7 -0.799092D-01 -0.491563D-01  0.870377D-01  0.354469D-02  0.503090D-02
      8 -0.491556D-01 -0.114668D+00  0.123088D+00 -0.120249D-01 -0.133307D-01
      9  0.864428D-01  0.122247D+00 -0.245076D+00 -0.113240D-02 -0.867497D-03
     10 -0.354838D+00  0.224104D-02  0.387598D-02 -0.925732D-02 -0.633241D-03
     11  0.275763D-02 -0.437815D-01  0.237479D-02  0.326926D-01  0.207662D-02
     12  0.476820D-02  0.237520D-02 -0.410357D-01 -0.235577D-03  0.147039D-03
     13 -0.914910D-01 -0.154246D-01 -0.267199D-01  0.407302D-02  0.454058D-02
     14 -0.154244D-01 -0.102406D+00 -0.377953D-01 -0.128648D-01 -0.147684D-01
     15 -0.267200D-01 -0.377952D-01 -0.146036D+00 -0.474367D-03 -0.100355D-02
     16 -0.100606D-01 -0.454475D-03 -0.788360D-03  0.561062D-03 -0.483843D-03
     17 -0.178640D-01 -0.634316D-03 -0.781613D-03 -0.230904D-03  0.308254D-03
     18 -0.309406D-01 -0.781451D-03 -0.154014D-02  0.745158D-03  0.446674D-03
     19  0.407292D-02 -0.128647D-01 -0.474209D-03 -0.115001D-05 -0.159345D-02
     20  0.454046D-02 -0.147683D-01 -0.100344D-02 -0.159349D-02  0.158325D-03
     21  0.957335D-02 -0.294301D-01 -0.153925D-02 -0.252075D-02 -0.307614D-02
     22  0.407398D-02  0.602191D-02 -0.113806D-01  0.159235D-03  0.249569D-03
     23  0.602198D-02  0.833133D-02 -0.160934D-01  0.618602D-03  0.918170D-03
     24  0.872144D-02  0.123331D-01 -0.246421D-01  0.645134D-03 -0.124278D-03
                6             7             8             9            10 
      6  0.452451D-01
      7 -0.109790D-01  0.808293D-01
      8  0.260235D-01  0.550299D-01  0.119742D+00
      9  0.119354D-02 -0.912641D-01 -0.129065D+00  0.268850D+00
     10  0.216823D-03 -0.925810D-02  0.504762D-03 -0.440202D-03  0.381149D+00
     11 -0.172624D-03 -0.165504D-01 -0.528279D-03 -0.135719D-02 -0.376391D-03
     12 -0.141247D-02  0.281954D-01 -0.167736D-02  0.119343D-02 -0.644840D-03
     13  0.957359D-02  0.407387D-02  0.602183D-02  0.872121D-02 -0.100606D-01
     14 -0.294299D-01  0.602199D-02  0.833144D-02  0.123333D-01 -0.454558D-03
     15 -0.153934D-02 -0.113804D-01 -0.160935D-01 -0.246421D-01 -0.788308D-03
     16  0.172642D-03  0.561248D-03  0.391601D-03 -0.332079D-03  0.114210D-02
     17  0.850841D-03  0.760556D-03  0.516495D-03  0.566952D-03 -0.118940D-02
     18  0.133558D-02  0.172400D-03  0.971648D-03  0.112752D-02 -0.205999D-02
     19 -0.252069D-02  0.159292D-03  0.618600D-03  0.645157D-03  0.560985D-03
     20 -0.307609D-02  0.249591D-03  0.918256D-03 -0.124262D-03 -0.483835D-03
     21 -0.491309D-02  0.858390D-03  0.486006D-03  0.112746D-02  0.172612D-03
     22  0.858381D-03 -0.108612D-05 -0.138625D-02 -0.264042D-02  0.561325D-03
     23  0.486019D-03 -0.138622D-02 -0.981234D-03 -0.373397D-02  0.391630D-03
     24  0.112737D-02 -0.264035D-02 -0.373402D-02 -0.377360D-02 -0.332073D-03
               11            12            13            14            15 
     11  0.430277D-01
     12  0.192046D-02  0.452448D-01
     13 -0.178638D-01 -0.309407D-01  0.608060D+00
     14 -0.634409D-03 -0.781739D-03 -0.303150D-01  0.586638D+00
     15 -0.781426D-03 -0.154004D-02 -0.524970D-01 -0.742343D-01  0.500906D+00
     16 -0.118936D-02 -0.206002D-02 -0.354838D+00  0.224595D-02  0.387323D-02
     17 -0.984919D-03 -0.340190D-02  0.276268D-02 -0.437815D-01  0.237485D-02
     18 -0.340183D-02 -0.491310D-02  0.476539D-02  0.237522D-02 -0.410357D-01
     19 -0.230887D-03  0.745163D-03 -0.799055D-01  0.999483D-01  0.945315D-03
     20  0.308186D-03  0.446645D-03  0.994351D-01 -0.318713D+00  0.444752D-02
     21  0.850836D-03  0.133550D-02  0.650823D-03  0.528808D-02 -0.410366D-01
     22  0.760561D-03  0.172382D-03 -0.799123D-01 -0.491574D-01  0.870415D-01
     23  0.516561D-03  0.971652D-03 -0.491567D-01 -0.114666D+00  0.123086D+00
     24  0.566981D-03  0.112761D-02  0.864465D-01  0.122245D+00 -0.245076D+00
               16            17            18            19            20 
     16  0.381149D+00
     17 -0.381725D-03  0.430279D-01
     18 -0.641847D-03  0.192053D-02  0.452446D-01
     19 -0.925680D-02  0.326928D-01 -0.235863D-03  0.808256D-01
     20 -0.633064D-03  0.207611D-02  0.147011D-03 -0.106545D+00  0.343351D+00
     21  0.216752D-03 -0.172343D-03 -0.141248D-02  0.202746D-02  0.299643D-04
     22 -0.925861D-02 -0.165500D-01  0.281953D-01  0.354469D-02  0.503057D-02
     23  0.504912D-03 -0.528038D-03 -0.167780D-02 -0.120254D-01 -0.133304D-01
     24 -0.440323D-03 -0.135732D-02  0.119370D-02 -0.113233D-02 -0.867348D-03
               21            22            23            24 
     21  0.452452D-01
     22 -0.109786D-01  0.808327D-01
     23  0.260237D-01  0.550311D-01  0.119739D+00
     24  0.119328D-02 -0.912680D-01 -0.129062D+00  0.268850D+00
 Cartesian forces in FCRed:
 I=    1 X=   7.862795499383D-03 Y=   1.111998691015D-02 Z=   1.926052819351D-02
 I=    2 X=   3.222307392571D-03 Y=  -1.519391186182D-02 Z=  -3.510146639040D-03
 I=    3 X=   3.222496637541D-03 Y=   4.557057904077D-03 Z=  -1.491325904864D-02
 I=    4 X=  -1.539886181041D-02 Y=  -2.026306257074D-03 Z=  -3.510052122170D-03
 I=    5 X=  -7.862807988452D-03 Y=  -1.112002954455D-02 Z=  -1.926057306989D-02
 I=    6 X=   1.539885917572D-02 Y=   2.026238564502D-03 Z=   3.510118934547D-03
 I=    7 X=  -3.222203766395D-03 Y=   1.519393663916D-02 Z=   3.510108276305D-03
 I=    8 X=  -3.222585139961D-03 Y=  -4.556972354446D-03 Z=   1.491327547536D-02
 Cartesian force constants in FCRed: 
                1             2             3             4             5 
      1  0.608060D+00
      2 -0.303150D-01  0.586638D+00
      3 -0.524970D-01 -0.742343D-01  0.500906D+00
      4 -0.799086D-01  0.999522D-01  0.946287D-03  0.808290D-01
      5  0.994388D-01 -0.318710D+00  0.444492D-02 -0.106549D+00  0.343348D+00
      6  0.651777D-03  0.528539D-02 -0.410367D-01  0.202652D-02  0.328290D-04
      7 -0.799092D-01 -0.491563D-01  0.870377D-01  0.354469D-02  0.503090D-02
      8 -0.491556D-01 -0.114668D+00  0.123088D+00 -0.120249D-01 -0.133307D-01
      9  0.864428D-01  0.122247D+00 -0.245076D+00 -0.113240D-02 -0.867497D-03
     10 -0.354838D+00  0.224104D-02  0.387598D-02 -0.925732D-02 -0.633241D-03
     11  0.275763D-02 -0.437815D-01  0.237479D-02  0.326926D-01  0.207662D-02
     12  0.476820D-02  0.237520D-02 -0.410357D-01 -0.235577D-03  0.147039D-03
     13 -0.914910D-01 -0.154246D-01 -0.267199D-01  0.407302D-02  0.454058D-02
     14 -0.154244D-01 -0.102406D+00 -0.377953D-01 -0.128648D-01 -0.147684D-01
     15 -0.267200D-01 -0.377952D-01 -0.146036D+00 -0.474367D-03 -0.100355D-02
     16 -0.100606D-01 -0.454475D-03 -0.788360D-03  0.561062D-03 -0.483843D-03
     17 -0.178640D-01 -0.634316D-03 -0.781613D-03 -0.230904D-03  0.308254D-03
     18 -0.309406D-01 -0.781451D-03 -0.154014D-02  0.745158D-03  0.446674D-03
     19  0.407292D-02 -0.128647D-01 -0.474209D-03 -0.115001D-05 -0.159345D-02
     20  0.454046D-02 -0.147683D-01 -0.100344D-02 -0.159349D-02  0.158325D-03
     21  0.957335D-02 -0.294301D-01 -0.153925D-02 -0.252075D-02 -0.307614D-02
     22  0.407398D-02  0.602191D-02 -0.113806D-01  0.159235D-03  0.249569D-03
     23  0.602198D-02  0.833133D-02 -0.160934D-01  0.618602D-03  0.918170D-03
     24  0.872144D-02  0.123331D-01 -0.246421D-01  0.645134D-03 -0.124278D-03
                6             7             8             9            10 
      6  0.452451D-01
      7 -0.109790D-01  0.808293D-01
      8  0.260235D-01  0.550299D-01  0.119742D+00
      9  0.119354D-02 -0.912641D-01 -0.129065D+00  0.268850D+00
     10  0.216823D-03 -0.925810D-02  0.504762D-03 -0.440202D-03  0.381149D+00
     11 -0.172624D-03 -0.165504D-01 -0.528279D-03 -0.135719D-02 -0.376391D-03
     12 -0.141247D-02  0.281954D-01 -0.167736D-02  0.119343D-02 -0.644840D-03
     13  0.957359D-02  0.407387D-02  0.602183D-02  0.872121D-02 -0.100606D-01
     14 -0.294299D-01  0.602199D-02  0.833144D-02  0.123333D-01 -0.454558D-03
     15 -0.153934D-02 -0.113804D-01 -0.160935D-01 -0.246421D-01 -0.788308D-03
     16  0.172642D-03  0.561248D-03  0.391601D-03 -0.332079D-03  0.114210D-02
     17  0.850841D-03  0.760556D-03  0.516495D-03  0.566952D-03 -0.118940D-02
     18  0.133558D-02  0.172400D-03  0.971648D-03  0.112752D-02 -0.205999D-02
     19 -0.252069D-02  0.159292D-03  0.618600D-03  0.645157D-03  0.560985D-03
     20 -0.307609D-02  0.249591D-03  0.918256D-03 -0.124262D-03 -0.483835D-03
     21 -0.491309D-02  0.858390D-03  0.486006D-03  0.112746D-02  0.172612D-03
     22  0.858381D-03 -0.108612D-05 -0.138625D-02 -0.264042D-02  0.561325D-03
     23  0.486019D-03 -0.138622D-02 -0.981234D-03 -0.373397D-02  0.391630D-03
     24  0.112737D-02 -0.264035D-02 -0.373402D-02 -0.377360D-02 -0.332073D-03
               11            12            13            14            15 
     11  0.430277D-01
     12  0.192046D-02  0.452448D-01
     13 -0.178638D-01 -0.309407D-01  0.608060D+00
     14 -0.634409D-03 -0.781739D-03 -0.303150D-01  0.586638D+00
     15 -0.781426D-03 -0.154004D-02 -0.524970D-01 -0.742343D-01  0.500906D+00
     16 -0.118936D-02 -0.206002D-02 -0.354838D+00  0.224595D-02  0.387323D-02
     17 -0.984919D-03 -0.340190D-02  0.276268D-02 -0.437815D-01  0.237485D-02
     18 -0.340183D-02 -0.491310D-02  0.476539D-02  0.237522D-02 -0.410357D-01
     19 -0.230887D-03  0.745163D-03 -0.799055D-01  0.999483D-01  0.945315D-03
     20  0.308186D-03  0.446645D-03  0.994351D-01 -0.318713D+00  0.444752D-02
     21  0.850836D-03  0.133550D-02  0.650823D-03  0.528808D-02 -0.410366D-01
     22  0.760561D-03  0.172382D-03 -0.799123D-01 -0.491574D-01  0.870415D-01
     23  0.516561D-03  0.971652D-03 -0.491567D-01 -0.114666D+00  0.123086D+00
     24  0.566981D-03  0.112761D-02  0.864465D-01  0.122245D+00 -0.245076D+00
               16            17            18            19            20 
     16  0.381149D+00
     17 -0.381725D-03  0.430279D-01
     18 -0.641847D-03  0.192053D-02  0.452446D-01
     19 -0.925680D-02  0.326928D-01 -0.235863D-03  0.808256D-01
     20 -0.633064D-03  0.207611D-02  0.147011D-03 -0.106545D+00  0.343351D+00
     21  0.216752D-03 -0.172343D-03 -0.141248D-02  0.202746D-02  0.299643D-04
     22 -0.925861D-02 -0.165500D-01  0.281953D-01  0.354469D-02  0.503057D-02
     23  0.504912D-03 -0.528038D-03 -0.167780D-02 -0.120254D-01 -0.133304D-01
     24 -0.440323D-03 -0.135732D-02  0.119370D-02 -0.113233D-02 -0.867348D-03
               21            22            23            24 
     21  0.452452D-01
     22 -0.109786D-01  0.808327D-01
     23  0.260237D-01  0.550311D-01  0.119739D+00
     24  0.119328D-02 -0.912680D-01 -0.129062D+00  0.268850D+00
 FormGI is forming the generalized inverse of G from B-inverse, IUseBI=4.
 Internal forces: 
                 1 
      1   0.153991D-01
      2   0.153990D-01
      3   0.153988D-01
      4   0.327365D-02
      5   0.153988D-01
      6   0.153991D-01
      7   0.153990D-01
      8  -0.409771D-02
      9  -0.409762D-02
     10   0.409768D-02
     11  -0.409763D-02
     12   0.409763D-02
     13   0.409765D-02
     14   0.409768D-02
     15   0.409769D-02
     16   0.409767D-02
     17  -0.409765D-02
     18  -0.409765D-02
     19  -0.409774D-02
     20   0.000000D+00
     21   0.000000D+00
     22   0.000000D+00
     23   0.000000D+00
     24   0.000000D+00
     25   0.000000D+00
     26   0.000000D+00
     27   0.000000D+00
     28   0.000000D+00
 Internal force constants: 
                1             2             3             4             5 
      1  0.381150D+00
      2  0.248846D-02  0.381150D+00
      3  0.248876D-02  0.248862D-02  0.381149D+00
      4  0.587260D-02  0.587321D-02  0.587309D-02  0.277670D+00
      5  0.643204D-03  0.642780D-03 -0.114218D-02  0.587309D-02  0.381149D+00
      6 -0.114209D-02  0.642939D-03  0.643162D-03  0.587260D-02  0.248875D-02
      7  0.642897D-03 -0.114212D-02  0.642823D-03  0.587321D-02  0.248862D-02
      8  0.566794D-02  0.566802D-02  0.101450D-03 -0.178102D-01  0.251500D-03
      9  0.566842D-02  0.100870D-03  0.566822D-02 -0.178090D-01 -0.990677D-03
     10  0.108395D-03 -0.577274D-02 -0.577379D-02  0.178098D-01 -0.104420D-02
     11  0.101090D-03  0.566729D-02  0.566814D-02 -0.178102D-01 -0.990607D-03
     12 -0.577365D-02  0.110283D-03 -0.577331D-02  0.178107D-01 -0.104472D-02
     13 -0.577220D-02 -0.577372D-02  0.109288D-03  0.178088D-01  0.381871D-02
     14 -0.104363D-02 -0.104431D-02  0.381871D-02  0.178088D-01  0.109292D-03
     15  0.381881D-02 -0.104475D-02 -0.104409D-02  0.178098D-01 -0.577377D-02
     16 -0.104449D-02  0.381891D-02 -0.104483D-02  0.178107D-01 -0.577333D-02
     17 -0.991178D-03  0.251548D-03 -0.990724D-03 -0.178090D-01  0.566823D-02
     18  0.251323D-03 -0.990705D-03 -0.990561D-03 -0.178102D-01  0.566812D-02
     19 -0.990826D-03 -0.990684D-03  0.251500D-03 -0.178102D-01  0.101450D-03
     20 -0.486149D-03  0.395930D-02 -0.347348D-02  0.000000D+00 -0.485602D-03
     21  0.000000D+00  0.298810D-02 -0.298777D-02  0.000000D+00  0.298776D-02
     22  0.484756D-03  0.347358D-02 -0.395894D-02  0.000000D+00 -0.395911D-02
     23 -0.395869D-02  0.484956D-03  0.347339D-02  0.000000D+00  0.485573D-03
     24 -0.347319D-02 -0.486246D-03  0.395910D-02  0.000000D+00  0.395894D-02
     25 -0.298779D-02  0.000000D+00  0.298793D-02  0.000000D+00 -0.298794D-02
     26  0.298787D-02 -0.298789D-02  0.000000D+00  0.000000D+00  0.000000D+00
     27  0.347336D-02 -0.395909D-02  0.485575D-03  0.000000D+00  0.347346D-02
     28  0.395877D-02 -0.347361D-02 -0.485600D-03  0.000000D+00 -0.347341D-02
                6             7             8             9            10 
      6  0.381150D+00
      7  0.248845D-02  0.381150D+00
      8 -0.990781D-03 -0.990729D-03  0.509205D-01
      9 -0.991224D-03  0.251549D-03  0.100263D-01  0.509203D-01
     10  0.381881D-02 -0.104464D-02 -0.410683D-01 -0.410684D-01  0.110220D+00
     11  0.251324D-03 -0.990659D-03  0.100262D-01  0.100261D-01  0.111646D-01
     12 -0.104460D-02  0.381890D-02 -0.410689D-01  0.111643D-01 -0.196237D-01
     13 -0.104352D-02 -0.104442D-02  0.111642D-01 -0.410686D-01 -0.196245D-01
     14 -0.577221D-02 -0.577370D-02  0.433104D-02 -0.393325D-02 -0.756579D-02
     15  0.108401D-03 -0.577276D-02 -0.393231D-02 -0.393184D-02  0.186643D-01
     16 -0.577363D-02  0.110286D-03 -0.393240D-02  0.433128D-02 -0.756573D-02
     17  0.566841D-02  0.100870D-03  0.359594D-03  0.281464D-02 -0.393176D-02
     18  0.101087D-03  0.566730D-02  0.359405D-03  0.359555D-03  0.433141D-02
     19  0.566795D-02  0.566801D-02  0.281467D-02  0.359617D-03 -0.393239D-02
     20 -0.347338D-02  0.395909D-02  0.603276D-02 -0.534846D-02 -0.198061D-02
     21  0.000000D+00 -0.298810D-02  0.671735D-02 -0.671761D-02  0.000000D+00
     22  0.347317D-02  0.486216D-03  0.534847D-02 -0.603257D-02  0.198064D-02
     23 -0.395877D-02  0.347360D-02 -0.603326D-02  0.684338D-03 -0.716126D-02
     24 -0.484784D-03 -0.347359D-02 -0.534868D-02 -0.684808D-03 -0.518027D-02
     25  0.298778D-02  0.000000D+00 -0.671756D-02  0.000000D+00 -0.320001D-02
     26 -0.298787D-02  0.298789D-02  0.000000D+00  0.671752D-02  0.319945D-02
     27  0.486120D-03 -0.395930D-02  0.684592D-03  0.534837D-02  0.518044D-02
     28  0.395868D-02 -0.484986D-03 -0.684286D-03  0.603341D-02  0.716070D-02
               11            12            13            14            15 
     11  0.509199D-01
     12 -0.410684D-01  0.110219D+00
     13 -0.410685D-01 -0.196228D-01  0.110220D+00
     14 -0.393260D-02 -0.756692D-02  0.186675D-01  0.110220D+00
     15  0.433142D-02 -0.756592D-02 -0.756560D-02 -0.196245D-01  0.110220D+00
     16 -0.393225D-02  0.186662D-01 -0.756710D-02 -0.196227D-01 -0.196237D-01
     17  0.359579D-03  0.433128D-02 -0.393333D-02 -0.410687D-01 -0.410683D-01
     18  0.281447D-02 -0.393233D-02 -0.393251D-02 -0.410684D-01  0.111646D-01
     19  0.359383D-03 -0.393231D-02  0.433103D-02  0.111642D-01 -0.410683D-01
     20 -0.684700D-03  0.716107D-02 -0.518006D-02 -0.198067D-02 -0.518044D-02
     21  0.000000D+00  0.319886D-02 -0.319889D-02  0.319891D-02  0.000000D+00
     22  0.684507D-03  0.518028D-02 -0.716133D-02 -0.716166D-02  0.518027D-02
     23  0.534799D-02  0.198169D-02  0.518050D-02  0.198177D-02 -0.716069D-02
     24  0.603261D-02 -0.198053D-02  0.716167D-02  0.716135D-02 -0.198055D-02
     25  0.671720D-02  0.000000D+00  0.319923D-02 -0.319922D-02  0.320002D-02
     26 -0.671755D-02 -0.319899D-02  0.000000D+00  0.000000D+00 -0.319943D-02
     27 -0.603294D-02 -0.716121D-02  0.198075D-02  0.518007D-02  0.198070D-02
     28 -0.534834D-02 -0.517979D-02 -0.198169D-02 -0.518050D-02  0.716127D-02
               16            17            18            19            20 
     16  0.110220D+00
     17  0.111643D-01  0.509203D-01
     18 -0.410684D-01  0.100261D-01  0.509199D-01
[...]
 ! Name  Definition              Value                                          !
 --------------------------------------------------------------------------------
 ! R1    R(1,2)                  1.0936                                         !
 ! R2    R(1,3)                  1.0936                                         !
 ! R3    R(1,4)                  1.0936                                         !
 ! R4    R(1,5)                  1.5304                                         !
 ! R5    R(5,6)                  1.0936                                         !
 ! R6    R(5,7)                  1.0936                                         !
 ! R7    R(5,8)                  1.0936                                         !
 ! A1    A(2,1,3)              107.5128                                         !
 ! A2    A(2,1,4)              107.5129                                         !
 ! A3    A(2,1,5)              111.365                                          !
 ! A4    A(3,1,4)              107.5128                                         !
 ! A5    A(3,1,5)              111.365                                          !
 ! A6    A(4,1,5)              111.365                                          !
 ! A7    A(1,5,6)              111.365                                          !
 ! A8    A(1,5,7)              111.365                                          !
 ! A9    A(1,5,8)              111.365                                          !
 ! A10   A(6,5,7)              107.5129                                         !
 ! A11   A(6,5,8)              107.5128                                         !
 ! A12   A(7,5,8)              107.5128                                         !
 ! D1    D(2,1,5,6)             59.9999                                         !
 ! D2    D(2,1,5,7)            180.0                                            !
 ! D3    D(2,1,5,8)            -60.0                                            !
 ! D4    D(3,1,5,6)            -60.0001                                         !
 ! D5    D(3,1,5,7)             60.0                                            !
 ! D6    D(3,1,5,8)            180.0                                            !
 ! D7    D(4,1,5,6)            180.0                                            !
 ! D8    D(4,1,5,7)            -59.9999                                         !
 ! D9    D(4,1,5,8)             60.0001                                         !
 --------------------------------------------------------------------------------
                          Input orientation:                          
 ---------------------------------------------------------------------
 Center     Atomic      Atomic             Coordinates (Angstroms)
 Number     Number       Type             X           Y           Z
 ---------------------------------------------------------------------
      1          6           0       -0.816516    0.308041   -0.006802
      2          1           0       -0.469249   -0.728452   -0.038095
      3          1           0       -0.469215    0.799170   -0.920073
      4          1           0       -1.909487    0.289994   -0.038104
      5          6           0       -0.306365    1.029485    1.242787
      6          1           0        0.786606    1.047532    1.274089
      7          1           0       -0.653632    2.065978    1.274080
      8          1           0       -0.653666    0.538357    2.156059
 ---------------------------------------------------------------------
                    Distance matrix (angstroms):
                    1          2          3          4          5
     1  C    0.000000
     2  H    1.093568   0.000000
     3  H    1.093568   1.763948   0.000000
     4  H    1.093568   1.763949   1.763948   0.000000
     5  C    1.530428   2.181177   2.181177   2.181176   0.000000
     6  H    2.181176   2.540299   2.540299   3.092674   1.093568
     7  H    2.181177   3.092675   2.540300   2.540299   1.093568
     8  H    2.181177   2.540300   3.092675   2.540299   1.093568
                    6          7          8
     6  H    0.000000
     7  H    1.763949   0.000000
     8  H    1.763948   1.763948   0.000000
 Symmetry turned off by external request.
 Stoichiometry    C2H6
 Framework group  CI[X(C2H6)]
 Deg. of freedom     9
 Full point group                 CI      NOp   2
 Rotational constants (GHZ):          80.5805574          19.9151548          19.9151510
 Standard basis: CBSB3 (5D, 7F)
   128 basis functions,   176 primitive gaussians,   138 cartesian basis functions
     9 alpha electrons        9 beta electrons
       nuclear repulsion energy        42.1653061986 Hartrees.
 NAtoms=    8 NActive=    8 NUniq=    8 SFac= 1.00D+00 NAtFMM=   60 NAOKFM=F Big=F
 Integral buffers will be    131072 words long.
 Raffenetti 1 integral format.
 Two-electron integral symmetry is turned off.
 One-electron integrals computed using PRISM.
 NBasis=   128 RedAO= T EigKep=  1.40D-04  NBF=   128
 NBsUse=   128 1.00D-06 EigRej= -1.00D+00 NBFU=   128
 Initial guess from the checkpoint file:  "/rc_scratch/jasm3285/Gau-13530.chk"
 B after Tr=     0.000000    0.000000    0.000000
         Rot=    1.000000    0.000000    0.000000    0.000000 Ang=   0.00 deg.
 Keep R1 ints in memory in canonical form, NReq=47826300.
 Requested convergence on RMS density matrix=1.00D-08 within 128 cycles.
 Requested convergence on MAX density matrix=1.00D-06.
 Requested convergence on             energy=1.00D-06.
 No special actions if energy rises.
 SCF Done:  E(RHF) =  -79.2572389493     A.U. after    8 cycles
            NFock=  8  Conv=0.71D-08     -V/T= 2.0011
 ExpMin= 3.60D-02 ExpMax= 4.56D+03 ExpMxC= 6.82D+02 IAcc=3 IRadAn=         5 AccDes= 0.00D+00
 HarFok:  IExCor=  205 AccDes= 0.00D+00 IRadAn=         5 IDoV=-2 UseB2=F ITyADJ=14
 ICtDFT= 12500011 ScaDFX=  1.000000  1.000000  1.000000  1.000000
 Range of M.O.s used for correlation:     3   128
 NBasis=   128 NAE=     9 NBE=     9 NFC=     2 NFV=     0
 NROrb=    126 NOA=     7 NOB=     7 NVA=   119 NVB=   119

 **** Warning!!: The largest alpha MO coefficient is  0.33313663D+02

 Disk-based method using OVN memory for  7 occupieds at a time.
 Permanent disk used for amplitudes and <ij||ab> integrals=     1682660 words.
 Estimated scratch disk usage=    25878945 words.
 Actual    scratch disk usage=    20767137 words.
 JobTyp=1 Pass  1:  I=   1 to   7 NPSUse= 28 ParTrn=T ParDer=T DoDerP=F.
 (rs|ai) integrals will be sorted in core.
 Spin components of T(2) and E(2):
     alpha-alpha T2 =       0.1243231193D-01 E2=     -0.3672701227D-01
     alpha-beta  T2 =       0.8828213758D-01 E2=     -0.2868912588D+00
     beta-beta   T2 =       0.1243231193D-01 E2=     -0.3672701227D-01
 ANorm=    0.1055057705D+01
 E2 =    -0.3603452833D+00 EUMP2 =    -0.79617584232619D+02

 Complete Basis Set (CBS) Extrapolation:
 M. R. Nyden and G. A. Petersson, JCP 75, 1843 (1981)
 G. A. Petersson and M. A. Al-Laham, JCP 94, 6081 (1991)
 G. A. Petersson, T. Tensfeldt, and J. A. Montgomery, JCP 94, 6091 (1991)
 J. A. Montgomery, J. W. Ochterski, and G. A. Petersson, JCP 101, 5900 (1994)

 
 Minimum Number of PNO for Extrapolation =  10
 Absolute Overlaps: IRadAn =         5
 LocTrn: ILocal=3 LocCor=F DoCore=F.
 LocMO: Using population method
 Initial Trace= 0.70000000D+01 Initial TraceA= 0.16063594D+01
 RMSG= 0.10123718D-08
 There are a total of      182192 grid points.
 ElSum from         orbitals=        9.0000000628
 E2(CBS)=      -0.395848 CBS-Int=       0.013093 OIii=       3.610033

 **********************************************************************

            Population analysis using the SCF density.

 **********************************************************************

 Alpha  occ. eigenvalues --  -11.21123 -11.21063  -1.01604  -0.84125  -0.59522
 Alpha  occ. eigenvalues --   -0.59522  -0.50950  -0.48634  -0.48634
 Alpha virt. eigenvalues --    0.04407   0.05930   0.06662   0.06662   0.09756
 Alpha virt. eigenvalues --    0.09756   0.14308   0.14923   0.14923   0.17179
 Alpha virt. eigenvalues --    0.19579   0.20138   0.20138   0.20539   0.29274
 Alpha virt. eigenvalues --    0.29274   0.31684   0.31684   0.36851   0.39911
 Alpha virt. eigenvalues --    0.43059   0.56448   0.56448   0.57661   0.57661
 Alpha virt. eigenvalues --    0.60095   0.70269   0.70269   0.73747   0.73747
 Alpha virt. eigenvalues --    0.76221   0.76221   0.77249   0.83076   0.84067
 Alpha virt. eigenvalues --    0.90438   0.93675   0.97564   0.97564   1.03033
 Alpha virt. eigenvalues --    1.10220   1.19964   1.19964   1.30265   1.34354
 Alpha virt. eigenvalues --    1.34354   1.35093   1.35093   1.39333   1.39333
 Alpha virt. eigenvalues --    1.41474   1.56270   1.57492   1.60046   1.60046
 Alpha virt. eigenvalues --    1.65642   1.65642   1.69288   1.69288   1.78530
 Alpha virt. eigenvalues --    1.80564   1.80564   1.88532   2.66526   2.66526
 Alpha virt. eigenvalues --    2.82955   2.85245   2.86480   2.86480   3.08914
 Alpha virt. eigenvalues --    3.14893   3.14893   3.22525   3.31437   3.39316
 Alpha virt. eigenvalues --    3.40571   3.40571   3.44926   3.44926   3.49902
 Alpha virt. eigenvalues --    3.61856   3.61856   3.74114   3.78371   3.78371
 Alpha virt. eigenvalues --    3.88277   3.88277   3.89190   3.89190   4.17481
 Alpha virt. eigenvalues --    4.18079   4.18079   4.30824   4.31024   4.31024
 Alpha virt. eigenvalues --    4.36167   4.36167   4.40869   4.56759   4.59963
 Alpha virt. eigenvalues --    4.59963   4.61077   4.62705   4.62705   4.82061
 Alpha virt. eigenvalues --    4.87342   4.90263   4.90263   4.94297   4.94297
 Alpha virt. eigenvalues --    4.96484   5.53287   5.84995   6.03024   6.03024
 Alpha virt. eigenvalues --    6.15574   6.15574  25.38951  25.50812
          Condensed to atoms (all electrons):
               1          2          3          4          5          6
     1  C    4.616125   0.428054   0.428054   0.428054   0.317662  -0.030377
     2  H    0.428054   0.638154  -0.036476  -0.036476  -0.030377  -0.004978
     3  H    0.428054  -0.036476   0.638154  -0.036476  -0.030377  -0.004978
     4  H    0.428054  -0.036476  -0.036476   0.638154  -0.030377   0.004803
     5  C    0.317662  -0.030377  -0.030377  -0.030377   4.616125   0.428054
     6  H   -0.030377  -0.004978  -0.004978   0.004803   0.428054   0.638154
     7  H   -0.030377   0.004803  -0.004978  -0.004978   0.428054  -0.036476
     8  H   -0.030377  -0.004978   0.004803  -0.004978   0.428054  -0.036476
               7          8
     1  C   -0.030377  -0.030377
     2  H    0.004803  -0.004978
     3  H   -0.004978   0.004803
     4  H   -0.004978  -0.004978
     5  C    0.428054   0.428054
     6  H   -0.036476  -0.036476
     7  H    0.638154  -0.036476
     8  H   -0.036476   0.638154
 Mulliken charges:
               1
     1  C   -0.126819
     2  H    0.042273
     3  H    0.042273
     4  H    0.042273
     5  C   -0.126819
     6  H    0.042273
     7  H    0.042273
     8  H    0.042273
 Sum of Mulliken charges =  -0.00000
 Mulliken charges with hydrogens summed into heavy atoms:
               1
     1  C   -0.000000
     5  C    0.000000
 Electronic spatial extent (au):  <R**2>=            183.7945
 Charge=             -0.0000 electrons
 Dipole moment (field-independent basis, Debye):
    X=             -0.0000    Y=             -0.0000    Z=              0.0000  Tot=              0.0000
 Quadrupole moment (field-independent basis, Debye-Ang):
   XX=            -15.0511   YY=            -15.1269   ZZ=            -15.4302
   XY=             -0.1072   XZ=             -0.1858   YZ=             -0.2627
 Traceless Quadrupole moment (field-independent basis, Debye-Ang):
   XX=              0.1517   YY=              0.0758   ZZ=             -0.2275
   XY=             -0.1072   XZ=             -0.1858   YZ=             -0.2627
 Octapole moment (field-independent basis, Debye-Ang**2):
  XXX=             25.3509  YYY=            -30.3490  ZZZ=            -28.6073  XYY=              8.3494
  XXY=             -9.9452  XXZ=             -9.0929  XZZ=              8.4336  YZZ=            -10.6439
  YYZ=             -9.6997  XYZ=             -0.0430
 Hexadecapole moment (field-independent basis, Debye-Ang**3):
 XXXX=            -63.3564 YYYY=            -82.9375 ZZZZ=           -106.8165 XXXY=             12.4216
 XXXZ=              7.8169 YYYX=             10.7826 YYYZ=            -30.5449 ZZZX=              6.1077
 ZZZY=            -33.2077 XXYY=            -25.5990 XXZZ=            -29.2417 YYZZ=            -32.9798
 XXYZ=            -10.0966 YYXZ=              2.0271 ZZXY=              4.3957
 N-N= 4.216530619863D+01 E-N=-2.681084117707D+02  KE= 7.916685666634D+01

 Test job not archived.
 1\1\GINC-BNODE0304\SP\RMP2-FC\CBSB3\C2H6\JASM3285\19-Mar-2018\0\\#N Ge
 om=AllCheck Guess=TCheck SCRF=Check Test MP2/CBSB3 CBSExtrap=(NMin=10,
 MinPop)\\Title Card Required\\0,1\C,0,-0.8165162034,0.3080409596,-0.00
 68016468\H,0,-0.4692491312,-0.7284516597,-0.0380947875\H,0,-0.46921505
 62,0.799169576,-0.9200733959\H,0,-1.9094869624,0.2899940338,-0.0381038
 452\C,0,-0.306365029,1.0294853847,1.2427871907\H,0,0.78660573,1.047532
 3064,1.2740893918\H,0,-0.6536321019,2.0659780036,1.2740803345\H,0,-0.6
 53666176,0.5383567656,2.1560589384\\Version=ES64L-G16RevA.03\HF=-79.25
 72389\MP2=-79.6175842\E2(CBS)=-0.3958481\CBS-Int=-0.3827549\OIii=3.610
 0332\RMSD=7.113e-09\PG=CI [X(C2H6)]\\@


 THERE IS NOTHING NOBLE IN BEING SUPERIOR TO SOME OTHER MAN.
 TRUE NOBILITY IS BEING SUPERIOR TO YOUR FORMER SELF.

                                                   -- HINDU PROVERB
 Diagonal vibrational polarizability:
        0.0000000       0.0000000       0.0000000

 Complete Basis Set (CBS) Extrapolation:
 M. R. Nyden and G. A. Petersson, JCP 75, 1843 (1981)
 G. A. Petersson and M. A. Al-Laham, JCP 94, 6081 (1991)
 G. A. Petersson, T. Tensfeldt, and J. A. Montgomery, JCP 94, 6091 (1991)
 J. A. Montgomery, J. W. Ochterski, and G. A. Petersson, JCP 101, 5900 (1994)

 Temperature=               298.150000 Pressure=                       1.000000
 E(ZPE)=                      0.073634 E(Thermal)=                     0.077133
 E(SCF)=                    -79.257239 DE(MP2)=                       -0.360345
 DE(CBS)=                    -0.035503 DE(MP34)=                      -0.035149
 DE(CCSD)=                   -0.008156 DE(Int)=                        0.013093
 DE(Empirical)=              -0.020902
 CBS-QB3 (0 K)=             -79.630567 CBS-QB3 Energy=               -79.627068
 CBS-QB3 Enthalpy=          -79.626123 CBS-QB3 Free Energy=          -79.653690

 Test job not archived.
 1\1\GINC-BNODE0304\Mixed\CBS-QB3\CBS-QB3\C2H6\JASM3285\19-Mar-2018\0\\
 # opt=(calcfc,verytight,maxcyc=400) freq cbs-qb3 nosymm geom=connectiv
 ity ccsd=maxcyc=1000 iop(7/33=1)\\Title Card Required\\0,1\C,0,-0.8165
 162034,0.3080409596,-0.0068016468\H,0,-0.4692491312,-0.7284516597,-0.0
 380947875\H,0,-0.4692150562,0.799169576,-0.9200733959\H,0,-1.909486962
 4,0.2899940338,-0.0381038452\C,0,-0.306365029,1.0294853847,1.242787190
 7\H,0,0.78660573,1.0475323064,1.2740893918\H,0,-0.6536321019,2.0659780
 036,1.2740803345\H,0,-0.653666176,0.5383567656,2.1560589384\\Version=E
 S64L-G16RevA.03\HF/CbsB3=-79.2572389\E2(CBS)/CbsB3=-0.3958481\CBS-Int/
 CbsB3=0.0130931\OIii/CbsB3=3.6100332\MP2/CbsB4=-79.5480226\MP4(SDQ)/Cb
 sB4=-79.5831718\MP4(SDQ)/6-31+G(d')=-79.5327369\QCISD(T)/6-31+G(d')=-7
 9.5408928\CBSQB3=-79.6305667\FreqCoord=-1.5429920006,0.5821130487,-0.0
 128532497,-0.8867523421,-1.3765741318,-0.0719887152,-0.8866879498,1.51
 02116258,-1.7386867328,-3.6084073973,0.5480093016,-0.0720058318,-0.578
 9459989,1.9454454263,2.3485274216,1.4864693978,1.9795491658,2.40768000
 88,-1.2351856589,3.9041326062,2.4076628929,-1.2352500496,1.0173468443,
 4.0743609021\PG=CI [X(C2H6)]\NImag=0\\0.55006594,-0.01483143,0.5395893
 8,-0.02568367,-0.03631699,0.49764522,-0.07533663,0.08003566,0.00173301
 ,0.07756234,0.07941298,-0.27828015,-0.00320483,-0.08700837,0.30329984,
 0.00137444,-0.00218923,-0.04712385,0.00036148,0.00612433,0.05070858,-0
 .07534115,-0.03851842,0.07018495,0.00324640,0.00486519,-0.01013327,0.0
 7756800,-0.03851768,-0.10257434,0.09925206,-0.01120984,-0.01389331,0.0
 2542745,0.04381891,0.10854948,0.06946552,0.09823560,-0.22282142,-0.000
 85307,0.00008037,0.00083347,-0.07517700,-0.10631107,0.24545205,-0.3058
 3723,-0.00207237,-0.00360010,-0.00999456,0.00022023,0.00033920,-0.0099
 9594,0.00018383,0.00036016,0.33290355,-0.00144899,-0.04777621,0.000566
 59,0.03163186,0.00126564,0.00002908,-0.01589028,-0.00065178,-0.0007780
 7,0.00325799,0.04795632,-0.00252159,0.00056657,-0.04712135,-0.00008631
 ,0.00032951,-0.00108485,0.02735138,-0.00107920,0.00083355,0.00565474,0
 .00238114,0.05070660,-0.09172265,-0.01815739,-0.03145043,0.00379027,0.
 00439913,0.00961448,0.00379038,0.00612759,0.00861828,-0.00940893,-0.01
 698420,-0.02941704,0.55006594,-0.01815739,-0.10456610,-0.04448150,-0.0
 1231730,-0.01385695,-0.02780037,0.00612772,0.00812252,0.01218695,-0.00
 026646,-0.00065816,-0.00020103,-0.01483143,0.53958938,-0.03145043,-0.0
 4448150,-0.15592138,-0.00003628,-0.00050297,-0.00089182,-0.01068543,-0
 .01511107,-0.02287321,-0.00046206,-0.00020129,-0.00089220,-0.02568367,
 -0.03631699,0.49764522,-0.00940893,-0.00026646,-0.00046206,0.00052417,
 -0.00052682,0.00004398,0.00052424,0.00030165,-0.00043402,0.00128472,-0
 .00109806,-0.00190190,-0.30583723,-0.00207237,-0.00360010,0.33290355,-
 0.01698420,-0.00065816,-0.00020129,-0.00017828,0.00027478,0.00077568,0
 .00070995,0.00049596,0.00042795,-0.00109806,-0.00090656,-0.00320109,-0
 .00144898,-0.04777621,0.00056659,0.00325799,0.04795632,-0.02941704,-0.
 00020103,-0.00089220,0.00071706,0.00030020,0.00119132,0.00020366,0.000
 90390,0.00096988,-0.00190190,-0.00320109,-0.00460294,-0.00252159,0.000
 56657,-0.04712135,0.00565474,0.00238114,0.05070660,0.00379027,-0.01231
 730,-0.00003628,0.00002698,-0.00154263,-0.00238414,0.00018104,0.000588
 89,0.00054825,0.00052417,-0.00017828,0.00071706,-0.07533663,0.08003566
 ,0.00173301,-0.00999456,0.03163186,-0.00008631,0.07756234,0.00439913,-
 0.01385695,-0.00050297,-0.00154263,0.00035121,-0.00286009,0.00018029,0
 .00083893,-0.00026652,-0.00052682,0.00027478,0.00030020,0.07941298,-0.
 27828015,-0.00320483,0.00022023,0.00126564,0.00032951,-0.08700837,0.30
 329984,0.00961448,-0.02780037,-0.00089182,-0.00238414,-0.00286009,-0.0
 0460291,0.00078383,0.00049314,0.00097005,0.00004398,0.00077568,0.00119
 132,0.00137444,-0.00218923,-0.04712385,0.00033920,0.00002908,-0.001084
 85,0.00036148,0.00612433,0.05070858,0.00379038,0.00612772,-0.01068543,
 0.00018104,0.00018029,0.00078383,0.00002704,-0.00129335,-0.00252811,0.
 00052424,0.00070995,0.00020366,-0.07534115,-0.03851842,0.07018495,-0.0
 0999594,-0.01589028,0.02735138,0.00324640,0.00486519,-0.01013327,0.077
 56800,0.00612759,0.00812252,-0.01511107,0.00058889,0.00083893,0.000493
 14,-0.00129335,-0.00088746,-0.00357521,0.00030165,0.00049596,0.0009039
 0,-0.03851768,-0.10257434,0.09925206,0.00018383,-0.00065178,-0.0010792
 0,-0.01120984,-0.01389331,0.02542745,0.04381891,0.10854948,0.00861828,
 0.01218695,-0.02287321,0.00054825,-0.00026652,0.00097005,-0.00252811,-
 0.00357521,-0.00336437,-0.00043402,0.00042795,0.00096988,0.06946552,0.
 09823560,-0.22282142,0.00036016,-0.00077807,0.00083355,-0.00085307,0.0
 0008037,0.00083347,-0.07517700,-0.10631107,0.24545205\\-0.00000009,0.,
 -0.00000006,-0.00000014,0.00000005,-0.00000007,-0.00000011,0.00000001,
 0.00000002,-0.00000002,0.00000009,0.00000005,0.00000009,0.,0.00000006,
 0.00000002,-0.00000009,-0.00000005,0.00000014,-0.00000005,0.00000007,0
 .00000011,-0.00000002,-0.00000002\\\@
 Job cpu time:       0 days  0 hours  1 minutes 20.6 seconds.
 Elapsed time:       0 days  0 hours  0 minutes  3.7 seconds.
 File lengths (MBytes):  RWF=    194 Int=      0 D2E=      0 Chk=      3 Scr=      2
 Normal termination of Gaussian 16 at Mon Mar 19 08:42:26 2018.
