 Entering Gaussian System, Link 0=g16
 Input=oh_freq.com
 Output=oh_freq.log
 Initial command:
 /curc/sw/gaussian/16/g16/l1.exe "/rc_scratch/jasm3285/Gau-63475.inp" -scrdir="/rc_scratch/jasm3285/"
 Entering Link 1 = /curc/sw/gaussian/16/g16/l1.exe PID=     63477.
  
 Copyright (c) 1988,1990,1992,1993,1995,1998,2003,2009,2016,
            Gaussian, Inc.  All Rights Reserved.
  
 This is part of the Gaussian(R) 16 program.  It is based on
 the Gaussian(R) 09 system (copyright 2009, Gaussian, Inc.),
 the Gaussian(R) 03 system (copyright 2003, Gaussian, Inc.),
 the Gaussian(R) 98 system (copyright 1998, Gaussian, Inc.),
 the Gaussian(R) 94 system (copyright 1995, Gaussian, Inc.),
 the Gaussian 92(TM) system (copyright 1992, Gaussian, Inc.),
 the Gaussian 90(TM) system (copyright 1990, Gaussian, Inc.),
 the Gaussian 88(TM) system (copyright 1988, Gaussian, Inc.),
 the Gaussian 86(TM) system (copyright 1986, Carnegie Mellon
 University), and the Gaussian 82(TM) system (copyright 1983,
 Carnegie Mellon University). Gaussian is a federally registered
 trademark of Gaussian, Inc.
  
 This software contains proprietary and confidential information,
 including trade secrets, belonging to Gaussian, Inc.
  
 This software is provided under written license and may be
 used, copied, transmitted, or stored only in accord with that
 written license.
  
 The following legend is applicable only to US Government
 contracts under FAR:
  
                    RESTRICTED RIGHTS LEGEND
  
 Use, reproduction and disclosure by the US Government is
 subject to restrictions as set forth in subparagraphs (a)
 and (c) of the Commercial Computer Software - Restricted
 Rights clause in FAR 52.227-19.
  
 Gaussian, Inc.
 340 Quinnipiac St., Bldg. 40, Wallingford CT 06492
  
  
 ---------------------------------------------------------------
 Warning -- This program may not be used in any manner that
 competes with the business of Gaussian, Inc. or will provide
 assistance to any competitor of Gaussian, Inc.  The licensee
 of this program is prohibited from giving any competitor of
 Gaussian, Inc. access to this program.  By using this program,
 the user acknowledges that Gaussian, Inc. is engaged in the
 business of creating and licensing software in the field of
 computational chemistry and represents and warrants to the
 licensee that it is not a competitor of Gaussian, Inc. and that
 it will not use this program in any manner prohibited above.
 ---------------------------------------------------------------
  

 Cite this work as:
 Gaussian 16, Revision A.03,
 M. J. Frisch, G. W. Trucks, H. B. Schlegel, G. E. Scuseria, 
 M. A. Robb, J. R. Cheeseman, G. Scalmani, V. Barone, 
 G. A. Petersson, H. Nakatsuji, X. Li, M. Caricato, A. V. Marenich, 
 J. Bloino, B. G. Janesko, R. Gomperts, B. Mennucci, H. P. Hratchian, 
 J. V. Ortiz, A. F. Izmaylov, J. L. Sonnenberg, D. Williams-Young, 
 F. Ding, F. Lipparini, F. Egidi, J. Goings, B. Peng, A. Petrone, 
 T. Henderson, D. Ranasinghe, V. G. Zakrzewski, J. Gao, N. Rega, 
 G. Zheng, W. Liang, M. Hada, M. Ehara, K. Toyota, R. Fukuda, 
 J. Hasegawa, M. Ishida, T. Nakajima, Y. Honda, O. Kitao, H. Nakai, 
 T. Vreven, K. Throssell, J. A. Montgomery, Jr., J. E. Peralta, 
 F. Ogliaro, M. J. Bearpark, J. J. Heyd, E. N. Brothers, K. N. Kudin, 
 V. N. Staroverov, T. A. Keith, R. Kobayashi, J. Normand, 
 K. Raghavachari, A. P. Rendell, J. C. Burant, S. S. Iyengar, 
 J. Tomasi, M. Cossi, J. M. Millam, M. Klene, C. Adamo, R. Cammi, 
 J. W. Ochterski, R. L. Martin, K. Morokuma, O. Farkas, 
 J. B. Foresman, and D. J. Fox, Gaussian, Inc., Wallingford CT, 2016.
 
 ******************************************
 Gaussian 16:  ES64L-G16RevA.03 25-Dec-2016
                 7-Jul-2020 
 ******************************************
 -------------------------------------------
 # opt freq ub3lyp/cc-pvqz geom=connectivity
 -------------------------------------------
 1/18=20,19=15,26=3,38=1,57=2/1,3;
 2/9=110,12=2,17=6,18=5,40=1/2;
 3/5=16,6=2,11=2,25=1,30=1,71=1,74=-5,116=2/1,2,3;
 4//1;
 5/5=2,38=5/2;
 6/7=2,8=2,9=2,10=2,28=1/1;
 7//1,2,3,16;
 1/18=20,19=15,26=3/3(2);
 2/9=110/2;
 99//99;
 2/9=110/2;
 3/5=16,6=2,11=2,25=1,30=1,71=1,74=-5,116=2/1,2,3;
 4/5=5,16=3,69=1/1;
 5/5=2,38=5/2;
 7//1,2,3,16;
 1/18=20,19=15,26=3/3(-5);
 2/9=110/2;
 6/7=2,8=2,9=2,10=2,19=2,28=1/1;
 99/9=1/99;
 -------------------
 Title Card Required
 -------------------
 Symbolic Z-matrix:
 Charge =  0 Multiplicity = 2
 O                    -1.00933  -0.35666  -0.01321 
 H                    -0.04933  -0.35666  -0.01321 
 

 GradGradGradGradGradGradGradGradGradGradGradGradGradGradGradGradGradGrad
 Berny optimization.
 Initialization pass.
                           ----------------------------
                           !    Initial Parameters    !
                           ! (Angstroms and Degrees)  !
 --------------------------                            --------------------------
 ! Name  Definition              Value          Derivative Info.                !
 --------------------------------------------------------------------------------
 ! R1    R(1,2)                  0.96           estimate D2E/DX2                !
 --------------------------------------------------------------------------------
 Trust Radius=3.00D-01 FncErr=1.00D-07 GrdErr=1.00D-06 EigMax=2.50D+02 EigMin=1.00D-04
 Number of steps in this run=     20 maximum allowed number of steps=    100.
 GradGradGradGradGradGradGradGradGradGradGradGradGradGradGradGradGradGrad

                          Input orientation:                          
 ---------------------------------------------------------------------
 Center     Atomic      Atomic             Coordinates (Angstroms)
 Number     Number       Type             X           Y           Z
 ---------------------------------------------------------------------
      1          8           0       -1.009335   -0.356662   -0.013213
      2          1           0       -0.049335   -0.356662   -0.013213
 ---------------------------------------------------------------------
 Stoichiometry    HO(2)
 Framework group  C*V[C*(HO)]
 Deg. of freedom     1
 Full point group                 C*V     NOp   4
 Largest Abelian subgroup         C2V     NOp   4
 Largest concise Abelian subgroup C1      NOp   1
                         Standard orientation:                         
 ---------------------------------------------------------------------
 Center     Atomic      Atomic             Coordinates (Angstroms)
 Number     Number       Type             X           Y           Z
 ---------------------------------------------------------------------
      1          8           0        0.000000    0.000000    0.106667
      2          1           0        0.000000    0.000000   -0.853333
 ---------------------------------------------------------------------
 Rotational constants (GHZ):           0.0000000         578.3977159         578.3977159
 Standard basis: CC-pVQZ (5D, 7F)
 There are    46 symmetry adapted cartesian basis functions of A1  symmetry.
 There are    11 symmetry adapted cartesian basis functions of A2  symmetry.
 There are    24 symmetry adapted cartesian basis functions of B1  symmetry.
 There are    24 symmetry adapted cartesian basis functions of B2  symmetry.
 There are    35 symmetry adapted basis functions of A1  symmetry.
 There are    10 symmetry adapted basis functions of A2  symmetry.
 There are    20 symmetry adapted basis functions of B1  symmetry.
 There are    20 symmetry adapted basis functions of B2  symmetry.
    85 basis functions,   126 primitive gaussians,   105 cartesian basis functions
     5 alpha electrons        4 beta electrons
       nuclear repulsion energy         4.4098100910 Hartrees.
 NAtoms=    2 NActive=    2 NUniq=    2 SFac= 1.00D+00 NAtFMM=   60 NAOKFM=F Big=F
 Integral buffers will be    131072 words long.
 Raffenetti 2 integral format.
 Two-electron integral symmetry is turned on.
 One-electron integrals computed using PRISM.
 NBasis=    85 RedAO= T EigKep=  6.67D-04  NBF=    35    10    20    20
 NBsUse=    85 1.00D-06 EigRej= -1.00D+00 NBFU=    35    10    20    20
 ExpMin= 8.99D-02 ExpMax= 6.14D+04 ExpMxC= 5.91D+02 IAcc=3 IRadAn=         5 AccDes= 0.00D+00
 Harris functional with IExCor=  402 and IRadAn=       5 diagonalized for initial guess.
 HarFok:  IExCor=  402 AccDes= 0.00D+00 IRadAn=         5 IDoV= 1 UseB2=F ITyADJ=14
 ICtDFT=  3500011 ScaDFX=  1.000000  1.000000  1.000000  1.000000
 FoFCou: FMM=F IPFlag=           0 FMFlag=      100000 FMFlg1=           0
         NFxFlg=           0 DoJE=T BraDBF=F KetDBF=T FulRan=T
         wScrn=  0.000000 ICntrl=       500 IOpCl=  0 I1Cent=   200000004 NGrid=           0
         NMat0=    1 NMatS0=      1 NMatT0=    0 NMatD0=    1 NMtDS0=    0 NMtDT0=    0
 Petite list used in FoFCou.
 Initial guess orbital symmetries:
 Alpha Orbitals:
       Occupied  (SG) (SG) (SG) (PI) (PI)
       Virtual   (SG) (SG) (SG) (PI) (PI) (PI) (PI) (SG) (SG) (DLTA)
                 (DLTA) (SG) (PI) (PI) (SG) (DLTA) (DLTA) (PI)
                 (PI) (PI) (PI) (SG) (PI) (PI) (SG) (SG) (PHI)
                 (PHI) (SG) (DLTA) (DLTA) (DLTA) (DLTA) (PI) (PI)
                 (SG) (PI) (PI) (SG) (PHI) (PHI) (DLTA) (DLTA)
                 (PI) (PI) (SG) (PI) (PI) (DLTA) (DLTA) (SG) (PI)
                 (PI) (SG) (?A) (?A) (PHI) (PHI) (SG) (PI) (PI)
                 (DLTA) (DLTA) (SG) (PI) (PI) (PHI) (PHI) (DLTA)
                 (DLTA) (SG) (PI) (PI) (DLTA) (DLTA) (SG) (PI)
                 (PI) (SG) (SG)
 Beta  Orbitals:
       Occupied  (SG) (SG) (SG) (PI)
       Virtual   (PI) (SG) (SG) (SG) (PI) (PI) (PI) (PI) (SG) (SG)
                 (DLTA) (DLTA) (SG) (PI) (PI) (SG) (DLTA) (DLTA)
                 (PI) (PI) (PI) (PI) (SG) (PI) (PI) (SG) (SG) (PHI)
                 (PHI) (SG) (DLTA) (DLTA) (DLTA) (DLTA) (PI) (PI)
                 (SG) (PI) (PI) (SG) (PHI) (PHI) (DLTA) (DLTA)
                 (PI) (PI) (SG) (PI) (PI) (DLTA) (DLTA) (SG) (PI)
                 (PI) (SG) (?A) (?A) (PHI) (PHI) (SG) (PI) (PI)
                 (DLTA) (DLTA) (SG) (PI) (PI) (PHI) (PHI) (DLTA)
                 (DLTA) (SG) (PI) (PI) (DLTA) (DLTA) (SG) (PI)
                 (PI) (SG) (SG)
 Initial guess <Sx>= 0.0000 <Sy>= 0.0000 <Sz>= 0.5000 <S**2>= 0.7500 S= 0.5000
 Keep R1 and R2 ints in memory in symmetry-blocked form, NReq=11229959.
 Requested convergence on RMS density matrix=1.00D-08 within 128 cycles.
 Requested convergence on MAX density matrix=1.00D-06.
 Requested convergence on             energy=1.00D-06.
 No special actions if energy rises.
 Integral accuracy reduced to 1.0D-05 until final iterations.
 Initial convergence to 1.0D-05 achieved.  Increase integral accuracy.
 SCF Done:  E(UB3LYP) =  -75.7721374265     A.U. after   10 cycles
            NFock= 10  Conv=0.48D-08     -V/T= 2.0032
 <Sx>= 0.0000 <Sy>= 0.0000 <Sz>= 0.5000 <S**2>= 0.7524 S= 0.5012
 <L.S>=  0.00000000000    
 Annihilation of the first spin contaminant:
 S**2 before annihilation     0.7524,   after     0.7500

 **********************************************************************

            Population analysis using the SCF density.

 **********************************************************************

 Orbital symmetries:
 Alpha Orbitals:
       Occupied  (SG) (SG) (SG) (PI) (PI)
       Virtual   (SG) (SG) (SG) (PI) (PI) (PI) (PI) (SG) (?A) (?A)
                 (?A) (?A) (PI) (PI) (SG) (DLTA) (DLTA) (?B) (?B)
                 (?B) (?B) (SG) (PI) (PI) (?A) (?A) (PHI) (PHI)
                 (?A) (?A) (?A) (?A) (?A) (PI) (PI) (?A) (PI) (PI)
                 (SG) (PHI) (PHI) (DLTA) (DLTA) (PI) (PI) (SG)
                 (PI) (PI) (?C) (?C) (?C) (PI) (PI) (SG) (?D) (?D)
                 (PHI) (PHI) (SG) (PI) (PI) (DLTA) (DLTA) (?A)
                 (?E) (?E) (?E) (?E) (?A) (?A) (?A) (PI) (PI) (DLTA)
                 (DLTA) (SG) (PI) (PI) (SG) (SG)
 Beta  Orbitals:
       Occupied  (SG) (SG) (SG) (?A)
       Virtual   (?A) (SG) (SG) (SG) (?A) (?A) (PI) (PI) (SG) (SG)
                 (DLTA) (DLTA) (SG) (PI) (PI) (SG) (DLTA) (DLTA)
                 (?A) (?A) (?A) (?A) (SG) (PI) (PI) (SG) (SG) (PHI)
                 (PHI) (SG) (DLTA) (DLTA) (DLTA) (DLTA) (PI) (PI)
                 (SG) (PI) (PI) (SG) (PHI) (PHI) (DLTA) (DLTA)
                 (PI) (PI) (SG) (PI) (PI) (?B) (?B) (?B) (PI) (PI)
                 (SG) (?C) (?C) (PHI) (PHI) (SG) (PI) (PI) (DLTA)
                 (DLTA) (SG) (PI) (PI) (PHI) (PHI) (?D) (?D) (?D)
                 (PI) (PI) (DLTA) (DLTA) (SG) (PI) (PI) (SG) (SG)
 Unable to determine electronic state:  an orbital has unidentified symmetry.
 Alpha  occ. eigenvalues --  -19.19915  -1.02708  -0.48563  -0.42404  -0.35156
 Alpha virt. eigenvalues --    0.01705   0.30289   0.34776   0.37741   0.40393
 Alpha virt. eigenvalues --    0.50903   0.52093   0.60471   0.92313   0.98271
 Alpha virt. eigenvalues --    0.98336   1.17091   1.24199   1.26936   1.54147
 Alpha virt. eigenvalues --    1.97603   1.97620   2.07156   2.09480   2.22882
 Alpha virt. eigenvalues --    2.26787   2.36758   2.60433   2.63231   2.80337
 Alpha virt. eigenvalues --    3.02879   3.05108   3.05139   3.38631   3.40682
 Alpha virt. eigenvalues --    3.41953   3.66840   3.66879   3.70341   3.74861
 Alpha virt. eigenvalues --    4.13523   4.42722   4.46337   4.85924   5.76217
 Alpha virt. eigenvalues --    5.76217   6.46634   6.46641   6.96258   6.97740
 Alpha virt. eigenvalues --    7.03657   7.63350   7.64791   7.73341   7.73350
 Alpha virt. eigenvalues --    7.77111   8.36681   8.38933   8.43540   8.78977
 Alpha virt. eigenvalues --    8.78988   8.98011   8.98024   9.21082   9.68724
 Alpha virt. eigenvalues --    9.75247  10.09150  10.09177  10.63988  10.68348
 Alpha virt. eigenvalues --   10.73173  10.83366  10.83422  11.00406  11.00714
 Alpha virt. eigenvalues --   11.12675  11.64368  11.69654  11.86924  11.86971
 Alpha virt. eigenvalues --   13.42669  13.76492  13.81140  15.87282  40.85495
  Beta  occ. eigenvalues --  -19.17361  -0.95689  -0.45991  -0.32607
  Beta virt. eigenvalues --   -0.17823   0.02249   0.30899   0.35226   0.41115
  Beta virt. eigenvalues --    0.43307   0.51921   0.51980   0.62490   0.93102
  Beta virt. eigenvalues --    1.01707   1.02115   1.17662   1.27237   1.27519
  Beta virt. eigenvalues --    1.55057   1.98263   1.98331   2.09533   2.09930
  Beta virt. eigenvalues --    2.27897   2.29920   2.37211   2.63676   2.63980
  Beta virt. eigenvalues --    2.82835   3.04447   3.09627   3.09789   3.43257
  Beta virt. eigenvalues --    3.43845   3.44200   3.73720   3.74678   3.75670
  Beta virt. eigenvalues --    3.76302   4.15161   4.46882   4.47160   4.88080
  Beta virt. eigenvalues --    5.76577   5.76583   6.47797   6.47965   6.97243
  Beta virt. eigenvalues --    6.97341   7.04442   7.64254   7.64424   7.73073
  Beta virt. eigenvalues --    7.73087   7.77826   8.38871   8.39056   8.44479
  Beta virt. eigenvalues --    8.86037   8.86192   9.03139   9.03272   9.22294
  Beta virt. eigenvalues --    9.77341   9.79373  10.12814  10.13268  10.67316
  Beta virt. eigenvalues --   10.73924  10.74514  10.92712  10.93259  11.06668
  Beta virt. eigenvalues --   11.07332  11.15246  11.70750  11.72435  11.96559
  Beta virt. eigenvalues --   11.97980  13.44603  13.82118  13.83913  15.89107
  Beta virt. eigenvalues --   40.88645
          Condensed to atoms (all electrons):
               1          2
     1  O    7.906553   0.351303
     2  H    0.351303   0.390841
          Atomic-Atomic Spin Densities.
               1          2
     1  O    1.015405  -0.002991
     2  H   -0.002991  -0.009424
 Mulliken charges and spin densities:
               1          2
     1  O   -0.257856   1.012414
     2  H    0.257856  -0.012414
 Sum of Mulliken charges =  -0.00000   1.00000
 Mulliken charges and spin densities with hydrogens summed into heavy atoms:
               1          2
     1  O   -0.000000   1.000000
 Electronic spatial extent (au):  <R**2>=             15.4439
 Charge=              0.0000 electrons
 Dipole moment (field-independent basis, Debye):
    X=              0.0000    Y=              0.0000    Z=             -1.6704  Tot=              1.6704
 Quadrupole moment (field-independent basis, Debye-Ang):
   XX=             -5.4646   YY=             -6.7101   ZZ=             -4.6632
   XY=              0.0000   XZ=              0.0000   YZ=              0.0000
 Traceless Quadrupole moment (field-independent basis, Debye-Ang):
   XX=              0.1480   YY=             -1.0975   ZZ=              0.9494
   XY=              0.0000   XZ=              0.0000   YZ=              0.0000
 Octapole moment (field-independent basis, Debye-Ang**2):
  XXX=              0.0000  YYY=              0.0000  ZZZ=             -1.8734  XYY=              0.0000
  XXY=              0.0000  XXZ=             -0.1655  XZZ=              0.0000  YZZ=              0.0000
  YYZ=             -0.2324  XYZ=              0.0000
 Hexadecapole moment (field-independent basis, Debye-Ang**3):
 XXXX=             -3.8397 YYYY=             -5.6309 ZZZZ=             -5.5296 XXXY=              0.0000
 XXXZ=              0.0000 YYYX=              0.0000 YYYZ=              0.0000 ZZZX=              0.0000
 ZZZY=              0.0000 XXYY=             -1.5785 XXZZ=             -1.7830 YYZZ=             -2.1088
 XXYZ=              0.0000 YYXZ=              0.0000 ZZXY=              0.0000
 N-N= 4.409810091000D+00 E-N=-1.883189808629D+02  KE= 7.553023334644D+01
 Symmetry A1   KE= 6.821491574279D+01
 Symmetry A2   KE= 4.340945091782D-35
 Symmetry B1   KE= 2.535273086983D+00
 Symmetry B2   KE= 4.780044516672D+00
 Symmetry A1   SP=-3.087352845820D-15
 Symmetry A2   SP= 7.636798358320D-36
 Symmetry B1   SP= 1.000000000000D+00
 Symmetry B2   SP=-1.122043801715D-14
                          Isotropic Fermi Contact Couplings
        Atom                 a.u.       MegaHertz       Gauss      10(-4) cm-1
     1  O(17)              0.00769      -4.66121      -1.66323      -1.55481
     2  H(1)              -0.01382     -61.77504     -22.04287     -20.60594
 --------------------------------------------------------
       Center         ----  Spin Dipole Couplings  ----
                      3XX-RR        3YY-RR        3ZZ-RR
 --------------------------------------------------------
     1   Atom        3.990540     -2.008880     -1.981660
     2   Atom       -0.029091     -0.138625      0.167716
 --------------------------------------------------------
                        XY            XZ            YZ
 --------------------------------------------------------
     1   Atom        0.000000      0.000000      0.000000
     2   Atom        0.000000      0.000000      0.000000
 --------------------------------------------------------


 ---------------------------------------------------------------------------------
              Anisotropic Spin Dipole Couplings in Principal Axis System
 ---------------------------------------------------------------------------------

       Atom             a.u.   MegaHertz   Gauss  10(-4) cm-1        Axes

              Baa    -2.0089   145.361    51.868    48.487 -0.0000  1.0000  0.0000
     1 O(17)  Bbb    -1.9817   143.392    51.166    47.830  0.0000  0.0000  1.0000
              Bcc     3.9905  -288.753  -103.034   -96.318  1.0000  0.0000  0.0000
 
              Baa    -0.1386   -73.964   -26.392   -24.672 -0.0000  1.0000  0.0000
     2 H(1)   Bbb    -0.0291   -15.521    -5.538    -5.177  1.0000  0.0000  0.0000
              Bcc     0.1677    89.485    31.931    29.849  0.0000  0.0000  1.0000
 

 ---------------------------------------------------------------------------------

 Calling FoFJK, ICntrl=      2127 FMM=F ISym2X=1 I1Cent= 0 IOpClX= 1 NMat=1 NMatS=1 NMatT=0.
 ***** Axes restored to original set *****
 -------------------------------------------------------------------
 Center     Atomic                   Forces (Hartrees/Bohr)
 Number     Number              X              Y              Z
 -------------------------------------------------------------------
      1        8          -0.013254476   -0.000000000   -0.000000000
      2        1           0.013254476   -0.000000000   -0.000000000
 -------------------------------------------------------------------
 Cartesian Forces:  Max     0.013254476 RMS     0.007652475

 GradGradGradGradGradGradGradGradGradGradGradGradGradGradGradGradGradGrad
 Berny optimization.
 FormGI is forming the generalized inverse of G from B-inverse, IUseBI=4.
 Internal  Forces:  Max     0.013254476 RMS     0.013254476
 Search for a local minimum.
 Step number   1 out of a maximum of   20
 All quantities printed in internal units (Hartrees-Bohrs-Radians)
 Mixed Optimization -- RFO/linear search
 Second derivative matrix not updated -- first step.
 The second derivative matrix:
                          R1
           R1           0.55473
 ITU=  0
     Eigenvalues ---    0.55473
 RFO step:  Lambda=-3.16513746D-04 EMin= 5.54734045D-01
 Linear search not attempted -- first point.
 Iteration  1 RMS(Cart)=  0.01688554 RMS(Int)=  0.00000000
 Iteration  2 RMS(Cart)=  0.00000000 RMS(Int)=  0.00000000
 ClnCor:  largest displacement from symmetrization is 0.00D+00 for atom     0.
 Variable       Old X    -DE/DX   Delta X   Delta X   Delta X     New X
                                 (Linear)    (Quad)   (Total)
    R1        1.81414   0.01325   0.00000   0.02388   0.02388   1.83802
         Item               Value     Threshold  Converged?
 Maximum Force            0.013254     0.000450     NO 
 RMS     Force            0.013254     0.000300     NO 
 Maximum Displacement     0.011940     0.001800     NO 
 RMS     Displacement     0.016886     0.001200     NO 
 Predicted change in Energy=-1.583471D-04
 GradGradGradGradGradGradGradGradGradGradGradGradGradGradGradGradGradGrad

                          Input orientation:                          
 ---------------------------------------------------------------------
 Center     Atomic      Atomic             Coordinates (Angstroms)
 Number     Number       Type             X           Y           Z
 ---------------------------------------------------------------------
      1          8           0       -1.015653   -0.356662   -0.013213
      2          1           0       -0.043016   -0.356662   -0.013213
 ---------------------------------------------------------------------
 Stoichiometry    HO(2)
 Framework group  C*V[C*(HO)]
 Deg. of freedom     1
 Full point group                 C*V     NOp   4
 Largest Abelian subgroup         C2V     NOp   4
 Largest concise Abelian subgroup C1      NOp   1
                         Standard orientation:                         
 ---------------------------------------------------------------------
 Center     Atomic      Atomic             Coordinates (Angstroms)
 Number     Number       Type             X           Y           Z
 ---------------------------------------------------------------------
      1          8           0        0.000000    0.000000    0.108071
      2          1           0        0.000000    0.000000   -0.864566
 ---------------------------------------------------------------------
 Rotational constants (GHZ):           0.0000000         563.4661043         563.4661043
 Standard basis: CC-pVQZ (5D, 7F)
 There are    46 symmetry adapted cartesian basis functions of A1  symmetry.
 There are    11 symmetry adapted cartesian basis functions of A2  symmetry.
 There are    24 symmetry adapted cartesian basis functions of B1  symmetry.
 There are    24 symmetry adapted cartesian basis functions of B2  symmetry.
 There are    35 symmetry adapted basis functions of A1  symmetry.
 There are    10 symmetry adapted basis functions of A2  symmetry.
 There are    20 symmetry adapted basis functions of B1  symmetry.
 There are    20 symmetry adapted basis functions of B2  symmetry.
    85 basis functions,   126 primitive gaussians,   105 cartesian basis functions
     5 alpha electrons        4 beta electrons
       nuclear repulsion energy         4.3525172424 Hartrees.
 NAtoms=    2 NActive=    2 NUniq=    2 SFac= 1.00D+00 NAtFMM=   60 NAOKFM=F Big=F
 Integral buffers will be    131072 words long.
 Raffenetti 2 integral format.
 Two-electron integral symmetry is turned on.
 One-electron integrals computed using PRISM.
 NBasis=    85 RedAO= T EigKep=  7.05D-04  NBF=    35    10    20    20
 NBsUse=    85 1.00D-06 EigRej= -1.00D+00 NBFU=    35    10    20    20
 Initial guess from the checkpoint file:  "/rc_scratch/jasm3285/Gau-63477.chk"
 B after Tr=     0.000000    0.000000   -0.000000
         Rot=    1.000000    0.000000    0.000000    0.000000 Ang=   0.00 deg.
 Initial guess orbital symmetries:
 Alpha Orbitals:
       Occupied  (SG) (SG) (SG) (PI) (PI)
       Virtual   (SG) (SG) (SG) (PI) (PI) (PI) (PI) (SG) (?A) (?A)
                 (?A) (?A) (PI) (PI) (SG) (DLTA) (DLTA) (?B) (?B)
                 (?B) (?B) (SG) (PI) (PI) (?A) (?A) (PHI) (PHI)
                 (?A) (?A) (?A) (?A) (?A) (PI) (PI) (?A) (PI) (PI)
                 (SG) (PHI) (PHI) (DLTA) (DLTA) (PI) (PI) (SG)
                 (PI) (PI) (?C) (?C) (?C) (PI) (PI) (SG) (?D) (?D)
                 (PHI) (PHI) (SG) (PI) (PI) (DLTA) (DLTA) (?A)
                 (?E) (?E) (?E) (?E) (?A) (?A) (?A) (PI) (PI) (DLTA)
                 (DLTA) (SG) (PI) (PI) (SG) (SG)
 Beta  Orbitals:
       Occupied  (SG) (SG) (SG) (?A)
       Virtual   (?A) (SG) (SG) (SG) (?A) (?A) (PI) (PI) (SG) (SG)
                 (DLTA) (DLTA) (SG) (PI) (PI) (SG) (DLTA) (DLTA)
                 (?A) (?A) (?A) (?A) (SG) (PI) (PI) (SG) (SG) (PHI)
                 (PHI) (SG) (DLTA) (DLTA) (DLTA) (DLTA) (PI) (PI)
                 (SG) (PI) (PI) (SG) (PHI) (PHI) (DLTA) (DLTA)
                 (PI) (PI) (SG) (PI) (PI) (?B) (?B) (?B) (PI) (PI)
                 (SG) (?C) (?C) (PHI) (PHI) (SG) (PI) (PI) (DLTA)
                 (DLTA) (SG) (PI) (PI) (PHI) (PHI) (?D) (?D) (?D)
                 (PI) (PI) (DLTA) (DLTA) (SG) (PI) (PI) (SG) (SG)
 Initial guess <Sx>= 0.0000 <Sy>= 0.0000 <Sz>= 0.5000 <S**2>= 0.7524 S= 0.5012
 Keep R1 and R2 ints in memory in symmetry-blocked form, NReq=11229945.
 Requested convergence on RMS density matrix=1.00D-08 within 128 cycles.
 Requested convergence on MAX density matrix=1.00D-06.
 Requested convergence on             energy=1.00D-06.
 No special actions if energy rises.
 SCF Done:  E(UB3LYP) =  -75.7723044269     A.U. after    8 cycles
            NFock=  8  Conv=0.11D-08     -V/T= 2.0035
 <Sx>= 0.0000 <Sy>= 0.0000 <Sz>= 0.5000 <S**2>= 0.7524 S= 0.5012
 <L.S>=  0.00000000000    
 Annihilation of the first spin contaminant:
 S**2 before annihilation     0.7524,   after     0.7500
 Calling FoFJK, ICntrl=      2127 FMM=F ISym2X=1 I1Cent= 0 IOpClX= 1 NMat=1 NMatS=1 NMatT=0.
 ***** Axes restored to original set *****
 -------------------------------------------------------------------
 Center     Atomic                   Forces (Hartrees/Bohr)
 Number     Number              X              Y              Z
 -------------------------------------------------------------------
      1        8          -0.000910371   -0.000000000   -0.000000000
      2        1           0.000910371   -0.000000000   -0.000000000
 -------------------------------------------------------------------
 Cartesian Forces:  Max     0.000910371 RMS     0.000525603

 GradGradGradGradGradGradGradGradGradGradGradGradGradGradGradGradGradGrad
 Berny optimization.
 Using GEDIIS/GDIIS optimizer.
 Internal  Forces:  Max     0.000910371 RMS     0.000910371
 Search for a local minimum.
 Step number   2 out of a maximum of   20
 All quantities printed in internal units (Hartrees-Bohrs-Radians)
 Mixed Optimization -- En-DIIS/RFO-DIIS
 Update second derivatives using D2CorX and points    1    2
 DE= -1.67D-04 DEPred=-1.58D-04 R= 1.05D+00
 TightC=F SS=  1.41D+00  RLast= 2.39D-02 DXNew= 5.0454D-01 7.1639D-02
 Trust test= 1.05D+00 RLast= 2.39D-02 DXMaxT set to 3.00D-01
 The second derivative matrix:
                          R1
           R1           0.51693
 ITU=  1  0
 Use linear search instead of GDIIS.
     Eigenvalues ---    0.51693
 RFO step:  Lambda= 0.00000000D+00 EMin= 5.16927428D-01
 Quartic linear search produced a step of  0.07732.
 Iteration  1 RMS(Cart)=  0.00130567 RMS(Int)=  0.00000000
 Iteration  2 RMS(Cart)=  0.00000000 RMS(Int)=  0.00000000
 ClnCor:  largest displacement from symmetrization is 0.00D+00 for atom     0.
 Variable       Old X    -DE/DX   Delta X   Delta X   Delta X     New X
                                 (Linear)    (Quad)   (Total)
    R1        1.83802   0.00091   0.00185   0.00000   0.00185   1.83986
         Item               Value     Threshold  Converged?
 Maximum Force            0.000910     0.000450     NO 
 RMS     Force            0.000910     0.000300     NO 
 Maximum Displacement     0.000923     0.001800     YES
 RMS     Displacement     0.001306     0.001200     NO 
 Predicted change in Energy=-7.997528D-07
 GradGradGradGradGradGradGradGradGradGradGradGradGradGradGradGradGradGrad

                          Input orientation:                          
 ---------------------------------------------------------------------
 Center     Atomic      Atomic             Coordinates (Angstroms)
 Number     Number       Type             X           Y           Z
 ---------------------------------------------------------------------
      1          8           0       -1.016142   -0.356662   -0.013213
      2          1           0       -0.042528   -0.356662   -0.013213
 ---------------------------------------------------------------------
 Stoichiometry    HO(2)
 Framework group  C*V[C*(HO)]
 Deg. of freedom     1
 Full point group                 C*V     NOp   4
 Largest Abelian subgroup         C2V     NOp   4
 Largest concise Abelian subgroup C1      NOp   1
                         Standard orientation:                         
 ---------------------------------------------------------------------
 Center     Atomic      Atomic             Coordinates (Angstroms)
 Number     Number       Type             X           Y           Z
 ---------------------------------------------------------------------
      1          8           0        0.000000    0.000000    0.108179
      2          1           0        0.000000    0.000000   -0.865434
 ---------------------------------------------------------------------
 Rotational constants (GHZ):           0.0000000         562.3356774         562.3356774
 Standard basis: CC-pVQZ (5D, 7F)
 There are    46 symmetry adapted cartesian basis functions of A1  symmetry.
 There are    11 symmetry adapted cartesian basis functions of A2  symmetry.
 There are    24 symmetry adapted cartesian basis functions of B1  symmetry.
 There are    24 symmetry adapted cartesian basis functions of B2  symmetry.
 There are    35 symmetry adapted basis functions of A1  symmetry.
 There are    10 symmetry adapted basis functions of A2  symmetry.
 There are    20 symmetry adapted basis functions of B1  symmetry.
 There are    20 symmetry adapted basis functions of B2  symmetry.
    85 basis functions,   126 primitive gaussians,   105 cartesian basis functions
     5 alpha electrons        4 beta electrons
       nuclear repulsion energy         4.3481490360 Hartrees.
 NAtoms=    2 NActive=    2 NUniq=    2 SFac= 1.00D+00 NAtFMM=   60 NAOKFM=F Big=F
 Integral buffers will be    131072 words long.
 Raffenetti 2 integral format.
 Two-electron integral symmetry is turned on.
 One-electron integrals computed using PRISM.
 NBasis=    85 RedAO= T EigKep=  7.08D-04  NBF=    35    10    20    20
 NBsUse=    85 1.00D-06 EigRej= -1.00D+00 NBFU=    35    10    20    20
 Initial guess from the checkpoint file:  "/rc_scratch/jasm3285/Gau-63477.chk"
 B after Tr=     0.000000    0.000000    0.000000
         Rot=    1.000000    0.000000    0.000000    0.000000 Ang=   0.00 deg.
 Initial guess orbital symmetries:
 Alpha Orbitals:
       Occupied  (SG) (SG) (SG) (PI) (PI)
       Virtual   (SG) (SG) (SG) (PI) (PI) (PI) (PI) (SG) (?A) (?A)
                 (?A) (?A) (PI) (PI) (SG) (DLTA) (DLTA) (?B) (?B)
                 (?B) (?B) (SG) (PI) (PI) (?A) (SG) (PHI) (PHI)
                 (?A) (?A) (?A) (?C) (?C) (PI) (PI) (?C) (PI) (PI)
                 (SG) (PHI) (PHI) (DLTA) (DLTA) (PI) (PI) (SG)
                 (PI) (PI) (?D) (?D) (?D) (PI) (PI) (SG) (?E) (?E)
                 (PHI) (PHI) (SG) (PI) (PI) (DLTA) (DLTA) (?A)
                 (?F) (?F) (?F) (?F) (?A) (?A) (?A) (PI) (PI) (DLTA)
                 (DLTA) (SG) (PI) (PI) (SG) (SG)
 Beta  Orbitals:
       Occupied  (SG) (SG) (SG) (?A)
       Virtual   (?A) (SG) (SG) (SG) (?A) (?A) (PI) (PI) (SG) (SG)
                 (DLTA) (DLTA) (SG) (PI) (PI) (SG) (DLTA) (DLTA)
                 (?A) (?A) (?A) (?A) (SG) (PI) (PI) (SG) (SG) (PHI)
                 (PHI) (DLTA) (DLTA) (SG) (DLTA) (DLTA) (PI) (PI)
                 (SG) (PI) (PI) (SG) (PHI) (PHI) (DLTA) (DLTA)
                 (PI) (PI) (SG) (PI) (PI) (?B) (?B) (?B) (PI) (PI)
                 (SG) (?C) (?C) (PHI) (PHI) (SG) (PI) (PI) (DLTA)
                 (DLTA) (SG) (PI) (PI) (PHI) (PHI) (?D) (?D) (?D)
                 (PI) (PI) (DLTA) (DLTA) (SG) (PI) (PI) (SG) (SG)
 Initial guess <Sx>= 0.0000 <Sy>= 0.0000 <Sz>= 0.5000 <S**2>= 0.7524 S= 0.5012
 Keep R1 and R2 ints in memory in symmetry-blocked form, NReq=11229945.
 Requested convergence on RMS density matrix=1.00D-08 within 128 cycles.
 Requested convergence on MAX density matrix=1.00D-06.
 Requested convergence on             energy=1.00D-06.
 No special actions if energy rises.
 SCF Done:  E(UB3LYP) =  -75.7723052661     A.U. after    6 cycles
            NFock=  6  Conv=0.74D-08     -V/T= 2.0035
 <Sx>= 0.0000 <Sy>= 0.0000 <Sz>= 0.5000 <S**2>= 0.7524 S= 0.5012
 <L.S>=  0.00000000000    
 Annihilation of the first spin contaminant:
 S**2 before annihilation     0.7524,   after     0.7500
 Calling FoFJK, ICntrl=      2127 FMM=F ISym2X=1 I1Cent= 0 IOpClX= 1 NMat=1 NMatS=1 NMatT=0.
 ***** Axes restored to original set *****
 -------------------------------------------------------------------
 Center     Atomic                   Forces (Hartrees/Bohr)
 Number     Number              X              Y              Z
 -------------------------------------------------------------------
      1        8           0.000000304   -0.000000000   -0.000000000
      2        1          -0.000000304   -0.000000000   -0.000000000
 -------------------------------------------------------------------
 Cartesian Forces:  Max     0.000000304 RMS     0.000000176

 GradGradGradGradGradGradGradGradGradGradGradGradGradGradGradGradGradGrad
 Berny optimization.
 Using GEDIIS/GDIIS optimizer.
 Internal  Forces:  Max     0.000000304 RMS     0.000000304
 Search for a local minimum.
 Step number   3 out of a maximum of   20
 All quantities printed in internal units (Hartrees-Bohrs-Radians)
 Mixed Optimization -- En-DIIS/RFO-DIIS
 Swapping is turned off.
 Update second derivatives using D2CorX and points    2    3
 DE= -8.39D-07 DEPred=-8.00D-07 R= 1.05D+00
 Trust test= 1.05D+00 RLast= 1.85D-03 DXMaxT set to 3.00D-01
 The second derivative matrix:
                          R1
           R1           0.49319
 ITU=  0  1
     Eigenvalues ---    0.49319
 En-DIIS/RFO-DIIS/Sim-DIIS IScMMF=       -3 using points:     3    2
 RFO step:  Lambda=-1.87516669D-13.
 DidBck=F Rises=F RFO-DIIS coefs:    0.99967    0.00033
 Iteration  1 RMS(Cart)=  0.00000044 RMS(Int)=  0.00000000
 ClnCor:  largest displacement from symmetrization is 1.11D-16 for atom     2.
 Variable       Old X    -DE/DX   Delta X   Delta X   Delta X     New X
                                 (Linear)    (Quad)   (Total)
    R1        1.83986  -0.00000  -0.00000   0.00000  -0.00000   1.83986
         Item               Value     Threshold  Converged?
 Maximum Force            0.000000     0.000450     YES
 RMS     Force            0.000000     0.000300     YES
 Maximum Displacement     0.000000     0.001800     YES
 RMS     Displacement     0.000000     0.001200     YES
 Predicted change in Energy=-9.374874D-14
 Optimization completed.
    -- Stationary point found.
                           ----------------------------
                           !   Optimized Parameters   !
                           ! (Angstroms and Degrees)  !
 --------------------------                            --------------------------
 ! Name  Definition              Value          Derivative Info.                !
 --------------------------------------------------------------------------------
 ! R1    R(1,2)                  0.9736         -DE/DX =    0.0                 !
 --------------------------------------------------------------------------------
 GradGradGradGradGradGradGradGradGradGradGradGradGradGradGradGradGradGrad

                          Input orientation:                          
 ---------------------------------------------------------------------
 Center     Atomic      Atomic             Coordinates (Angstroms)
 Number     Number       Type             X           Y           Z
 ---------------------------------------------------------------------
      1          8           0       -1.016142   -0.356662   -0.013213
      2          1           0       -0.042528   -0.356662   -0.013213
 ---------------------------------------------------------------------
 Stoichiometry    HO(2)
 Framework group  C*V[C*(HO)]
 Deg. of freedom     1
 Full point group                 C*V     NOp   4
 Largest Abelian subgroup         C2V     NOp   4
 Largest concise Abelian subgroup C1      NOp   1
                         Standard orientation:                         
 ---------------------------------------------------------------------
 Center     Atomic      Atomic             Coordinates (Angstroms)
 Number     Number       Type             X           Y           Z
 ---------------------------------------------------------------------
      1          8           0        0.000000    0.000000    0.108179
      2          1           0        0.000000    0.000000   -0.865434
 ---------------------------------------------------------------------
 Rotational constants (GHZ):           0.0000000         562.3356774         562.3356774

 **********************************************************************

            Population analysis using the SCF density.

 **********************************************************************

 Orbital symmetries:
 Alpha Orbitals:
       Occupied  (SG) (SG) (SG) (PI) (PI)
       Virtual   (SG) (SG) (SG) (PI) (PI) (PI) (PI) (SG) (?A) (?A)
                 (?A) (?A) (PI) (PI) (SG) (DLTA) (DLTA) (?B) (?B)
                 (?B) (?B) (SG) (PI) (PI) (?A) (SG) (PHI) (PHI)
                 (?A) (?A) (?A) (?C) (?C) (PI) (PI) (?C) (PI) (PI)
                 (SG) (PHI) (PHI) (DLTA) (DLTA) (PI) (PI) (SG)
                 (PI) (PI) (?D) (?D) (?D) (PI) (PI) (SG) (?E) (?E)
                 (PHI) (PHI) (SG) (PI) (PI) (DLTA) (DLTA) (?A)
                 (?F) (?F) (?F) (?F) (?A) (?A) (?A) (PI) (PI) (DLTA)
                 (DLTA) (SG) (PI) (PI) (SG) (SG)
 Beta  Orbitals:
       Occupied  (SG) (SG) (SG) (?A)
       Virtual   (?A) (SG) (SG) (SG) (?A) (?A) (PI) (PI) (SG) (SG)
                 (DLTA) (DLTA) (SG) (PI) (PI) (SG) (DLTA) (DLTA)
                 (?A) (?A) (?A) (?A) (SG) (PI) (PI) (SG) (SG) (PHI)
                 (PHI) (DLTA) (DLTA) (SG) (DLTA) (DLTA) (PI) (PI)
                 (SG) (PI) (PI) (SG) (PHI) (PHI) (DLTA) (DLTA)
                 (PI) (PI) (SG) (PI) (PI) (?B) (?B) (?B) (PI) (PI)
                 (SG) (?C) (?C) (PHI) (PHI) (SG) (PI) (PI) (DLTA)
                 (DLTA) (SG) (PI) (PI) (PHI) (PHI) (?D) (?D) (?D)
                 (PI) (PI) (DLTA) (DLTA) (SG) (PI) (PI) (SG) (SG)
 Unable to determine electronic state:  an orbital has unidentified symmetry.
 Alpha  occ. eigenvalues --  -19.20005  -1.02325  -0.48355  -0.42341  -0.35091
 Alpha virt. eigenvalues --    0.01487   0.29634   0.34903   0.37701   0.40351
 Alpha virt. eigenvalues --    0.50797   0.51980   0.60360   0.91608   0.98303
 Alpha virt. eigenvalues --    0.98365   1.17232   1.24040   1.26787   1.53935
 Alpha virt. eigenvalues --    1.97135   1.97153   2.06922   2.09275   2.22766
 Alpha virt. eigenvalues --    2.26561   2.36081   2.60140   2.62968   2.80769
 Alpha virt. eigenvalues --    3.00793   3.05169   3.05200   3.38273   3.39532
 Alpha virt. eigenvalues --    3.41473   3.67080   3.67115   3.70793   3.75362
 Alpha virt. eigenvalues --    4.13389   4.39248   4.42821   4.83037   5.75934
 Alpha virt. eigenvalues --    5.75934   6.43059   6.43065   6.95655   6.97159
 Alpha virt. eigenvalues --    6.99619   7.65509   7.66904   7.72244   7.74386
 Alpha virt. eigenvalues --    7.74400   8.32783   8.34921   8.41017   8.79035
 Alpha virt. eigenvalues --    8.79046   8.96499   8.96511   9.28264   9.66759
 Alpha virt. eigenvalues --    9.73315  10.03047  10.03073  10.62894  10.68224
 Alpha virt. eigenvalues --   10.73030  10.83369  10.83422  10.99398  11.00748
 Alpha virt. eigenvalues --   11.05437  11.59491  11.64789  11.85958  11.86005
 Alpha virt. eigenvalues --   13.32025  13.66099  13.70788  15.79272  40.75554
  Beta  occ. eigenvalues --  -19.17447  -0.95272  -0.45810  -0.32541
  Beta virt. eigenvalues --   -0.17756   0.02045   0.30226   0.35361   0.41069
  Beta virt. eigenvalues --    0.43256   0.51808   0.51863   0.62383   0.92373
  Beta virt. eigenvalues --    1.01735   1.02142   1.17769   1.27092   1.27379
  Beta virt. eigenvalues --    1.54856   1.97767   1.97833   2.09333   2.09750
  Beta virt. eigenvalues --    2.27618   2.29578   2.36513   2.63429   2.63764
  Beta virt. eigenvalues --    2.83296   3.02351   3.09688   3.09849   3.42685
  Beta virt. eigenvalues --    3.43039   3.43568   3.73974   3.74933   3.76198
  Beta virt. eigenvalues --    3.76876   4.15025   4.43346   4.43597   4.85165
  Beta virt. eigenvalues --    5.76237   5.76242   6.44168   6.44331   6.96660
  Beta virt. eigenvalues --    6.96758   7.00404   7.66347   7.66513   7.72882
  Beta virt. eigenvalues --    7.74067   7.74111   8.34803   8.34942   8.41891
  Beta virt. eigenvalues --    8.86094   8.86250   9.01637   9.01771   9.29465
  Beta virt. eigenvalues --    9.75433   9.77499  10.06718  10.07174  10.66123
  Beta virt. eigenvalues --   10.73774  10.74392  10.92726  10.93272  11.06472
  Beta virt. eigenvalues --   11.06700  11.08010  11.65878  11.67511  11.95623
  Beta virt. eigenvalues --   11.97047  13.33962  13.71794  13.73651  15.81101
  Beta virt. eigenvalues --   40.78715
          Condensed to atoms (all electrons):
               1          2
     1  O    7.917544   0.346386
     2  H    0.346386   0.389684
          Atomic-Atomic Spin Densities.
               1          2
     1  O    1.016318  -0.002874
     2  H   -0.002874  -0.010570
 Mulliken charges and spin densities:
               1          2
     1  O   -0.263930   1.013444
     2  H    0.263930  -0.013444
 Sum of Mulliken charges =   0.00000   1.00000
 Mulliken charges and spin densities with hydrogens summed into heavy atoms:
               1          2
     1  O    0.000000   1.000000
 Electronic spatial extent (au):  <R**2>=             15.5309
 Charge=              0.0000 electrons
 Dipole moment (field-independent basis, Debye):
    X=              0.0000    Y=              0.0000    Z=             -1.6773  Tot=              1.6773
 Quadrupole moment (field-independent basis, Debye-Ang):
   XX=             -5.4778   YY=             -6.7241   ZZ=             -4.6405
   XY=              0.0000   XZ=              0.0000   YZ=              0.0000
 Traceless Quadrupole moment (field-independent basis, Debye-Ang):
   XX=              0.1363   YY=             -1.1100   ZZ=              0.9736
   XY=              0.0000   XZ=              0.0000   YZ=              0.0000
 Octapole moment (field-independent basis, Debye-Ang**2):
  XXX=              0.0000  YYY=              0.0000  ZZZ=             -1.9025  XYY=              0.0000
  XXY=              0.0000  XXZ=             -0.1559  XZZ=              0.0000  YZZ=              0.0000
  YYZ=             -0.2252  XYZ=              0.0000
 Hexadecapole moment (field-independent basis, Debye-Ang**3):
 XXXX=             -3.8560 YYYY=             -5.6497 ZZZZ=             -5.5807 XXXY=              0.0000
 XXXZ=              0.0000 YYYX=              0.0000 YYYZ=              0.0000 ZZZX=              0.0000
 ZZZY=              0.0000 XXYY=             -1.5844 XXZZ=             -1.8065 YYZZ=             -2.1332
 XXYZ=              0.0000 YYXZ=              0.0000 ZZXY=              0.0000
 N-N= 4.348149036030D+00 E-N=-1.881879980701D+02  KE= 7.550665927363D+01
 Symmetry A1   KE= 6.818963080362D+01
 Symmetry A2   KE= 4.345523439178D-35
 Symmetry B1   KE= 2.536069422191D+00
 Symmetry B2   KE= 4.780959047827D+00
 Symmetry A1   SP=-3.702478865961D-15
 Symmetry A2   SP= 7.634658005637D-36
 Symmetry B1   SP= 1.000000000000D+00
 Symmetry B2   SP=-5.366110289009D-15
                          Isotropic Fermi Contact Couplings
        Atom                 a.u.       MegaHertz       Gauss      10(-4) cm-1
     1  O(17)              0.00730      -4.42494      -1.57893      -1.47600
     2  H(1)              -0.01399     -62.51569     -22.30715     -20.85299
 --------------------------------------------------------
       Center         ----  Spin Dipole Couplings  ----
                      3XX-RR        3YY-RR        3ZZ-RR
 --------------------------------------------------------
     1   Atom        3.990662     -2.011897     -1.978765
     2   Atom       -0.030148     -0.134070      0.164218
 --------------------------------------------------------
                        XY            XZ            YZ
 --------------------------------------------------------
     1   Atom        0.000000      0.000000      0.000000
     2   Atom        0.000000      0.000000      0.000000
 --------------------------------------------------------


 ---------------------------------------------------------------------------------
              Anisotropic Spin Dipole Couplings in Principal Axis System
 ---------------------------------------------------------------------------------

       Atom             a.u.   MegaHertz   Gauss  10(-4) cm-1        Axes

              Baa    -2.0119   145.579    51.946    48.560 -0.0000  1.0000  0.0000
     1 O(17)  Bbb    -1.9788   143.182    51.091    47.760  0.0000  0.0000  1.0000
              Bcc     3.9907  -288.761  -103.037   -96.320  1.0000  0.0000  0.0000
 
              Baa    -0.1341   -71.534   -25.525   -23.861 -0.0000  1.0000  0.0000
     2 H(1)   Bbb    -0.0301   -16.086    -5.740    -5.366  1.0000  0.0000  0.0000
              Bcc     0.1642    87.619    31.265    29.227  0.0000  0.0000  1.0000
 

 ---------------------------------------------------------------------------------

 1\1\GINC-BNODE0307\FOpt\UB3LYP\CC-pVQZ\H1O1(2)\JASM3285\07-Jul-2020\0\
 \# opt freq ub3lyp/cc-pvqz geom=connectivity\\Title Card Required\\0,2
 \O,-1.0161416249,-0.35666218,-0.0132129\H,-0.0425278751,-0.35666218,-0
 .0132129\\Version=ES64L-G16RevA.03\HF=-75.7723053\S2=0.752417\S2-1=0.\
 S2A=0.750004\RMSD=7.361e-09\RMSF=1.756e-07\Dipole=0.6598817,0.,0.\Quad
 rupole=0.7238847,-0.8252552,0.1013705,0.,0.,0.\PG=C*V [C*(H1O1)]\\@


 THE GREAT THING ABOUT BEING IMPERFECT IS THE JOY IT BRINGS OTHERS.
   -- SIGN OUTSIDE LAKE AGASSIZ JR. HIGH SCHOOL, FARGO, N.D.
 Job cpu time:       0 days  0 hours  0 minutes 16.2 seconds.
 Elapsed time:       0 days  0 hours  0 minutes 17.5 seconds.
 File lengths (MBytes):  RWF=     22 Int=      0 D2E=      0 Chk=      3 Scr=      2
 Normal termination of Gaussian 16 at Tue Jul  7 20:12:13 2020.
 Link1:  Proceeding to internal job step number  2.
 -------------------------------------------------------------------
 #N Geom=AllCheck Guess=TCheck SCRF=Check GenChk UB3LYP/CC-pVQZ Freq
 -------------------------------------------------------------------
 1/10=4,29=7,30=1,38=1,40=1/1,3;
 2/12=2,40=1/2;
 3/5=16,6=2,11=2,14=-4,25=1,30=1,70=2,71=2,74=-5,116=2,140=1/1,2,3;
 4/5=101/1;
 5/5=2,38=6,98=1/2;
 8/6=4,10=90,11=11/1;
 11/6=1,8=1,9=11,15=111,16=1/1,2,10;
 10/6=1/2;
 6/7=2,8=2,9=2,10=2,28=1/1;
 7/8=1,10=1,25=1/1,2,3,16;
 1/10=4,30=1/3;
 99//99;
 Structure from the checkpoint file:  "/rc_scratch/jasm3285/Gau-63477.chk"
 -------------------
 Title Card Required
 -------------------
 Charge =  0 Multiplicity = 2
 Redundant internal coordinates found in file.  (old form).
 O,0,-1.0161416249,-0.35666218,-0.0132129
 H,0,-0.0425278751,-0.35666218,-0.0132129
 Recover connectivity data from disk.

 GradGradGradGradGradGradGradGradGradGradGradGradGradGradGradGradGradGrad
 Berny optimization.
 Initialization pass.
                           ----------------------------
                           !    Initial Parameters    !
                           ! (Angstroms and Degrees)  !
 --------------------------                            --------------------------
 ! Name  Definition              Value          Derivative Info.                !
 --------------------------------------------------------------------------------
 ! R1    R(1,2)                  0.9736         calculate D2E/DX2 analytically  !
 --------------------------------------------------------------------------------
 Trust Radius=3.00D-01 FncErr=1.00D-07 GrdErr=1.00D-07 EigMax=2.50D+02 EigMin=1.00D-04
 Number of steps in this run=      2 maximum allowed number of steps=      2.
 GradGradGradGradGradGradGradGradGradGradGradGradGradGradGradGradGradGrad

                          Input orientation:                          
 ---------------------------------------------------------------------
 Center     Atomic      Atomic             Coordinates (Angstroms)
 Number     Number       Type             X           Y           Z
 ---------------------------------------------------------------------
      1          8           0       -1.016142   -0.356662   -0.013213
      2          1           0       -0.042528   -0.356662   -0.013213
 ---------------------------------------------------------------------
 Stoichiometry    HO(2)
 Framework group  C*V[C*(HO)]
 Deg. of freedom     1
 Full point group                 C*V     NOp   4
 Largest Abelian subgroup         C2V     NOp   4
 Largest concise Abelian subgroup C1      NOp   1
                         Standard orientation:                         
 ---------------------------------------------------------------------
 Center     Atomic      Atomic             Coordinates (Angstroms)
 Number     Number       Type             X           Y           Z
 ---------------------------------------------------------------------
      1          8           0        0.000000    0.000000    0.108179
      2          1           0        0.000000    0.000000   -0.865434
 ---------------------------------------------------------------------
 Rotational constants (GHZ):           0.0000000         562.3356774         562.3356774
 Standard basis: CC-pVQZ (5D, 7F)
 There are    46 symmetry adapted cartesian basis functions of A1  symmetry.
 There are    11 symmetry adapted cartesian basis functions of A2  symmetry.
 There are    24 symmetry adapted cartesian basis functions of B1  symmetry.
 There are    24 symmetry adapted cartesian basis functions of B2  symmetry.
 There are    35 symmetry adapted basis functions of A1  symmetry.
 There are    10 symmetry adapted basis functions of A2  symmetry.
 There are    20 symmetry adapted basis functions of B1  symmetry.
 There are    20 symmetry adapted basis functions of B2  symmetry.
    85 basis functions,   126 primitive gaussians,   105 cartesian basis functions
     5 alpha electrons        4 beta electrons
       nuclear repulsion energy         4.3481490360 Hartrees.
 NAtoms=    2 NActive=    2 NUniq=    2 SFac= 1.00D+00 NAtFMM=   60 NAOKFM=F Big=F
 Integral buffers will be    131072 words long.
 Raffenetti 2 integral format.
 Two-electron integral symmetry is turned on.
 One-electron integrals computed using PRISM.
 NBasis=    85 RedAO= T EigKep=  7.08D-04  NBF=    35    10    20    20
 NBsUse=    85 1.00D-06 EigRej= -1.00D+00 NBFU=    35    10    20    20
 Initial guess from the checkpoint file:  "/rc_scratch/jasm3285/Gau-63477.chk"
 B after Tr=     0.000000    0.000000    0.000000
         Rot=    1.000000    0.000000    0.000000    0.000000 Ang=   0.00 deg.
 Initial guess orbital symmetries:
 Alpha Orbitals:
       Occupied  (SG) (SG) (SG) (PI) (PI)
       Virtual   (SG) (SG) (SG) (PI) (PI) (PI) (PI) (SG) (?A) (?A)
                 (?A) (?A) (PI) (PI) (SG) (DLTA) (DLTA) (?B) (?B)
                 (?B) (?B) (SG) (PI) (PI) (?A) (SG) (PHI) (PHI)
                 (?A) (?A) (?A) (?C) (?C) (PI) (PI) (?C) (PI) (PI)
                 (SG) (PHI) (PHI) (DLTA) (DLTA) (PI) (PI) (SG)
                 (PI) (PI) (?D) (?D) (?D) (PI) (PI) (SG) (?E) (?E)
                 (PHI) (PHI) (SG) (PI) (PI) (DLTA) (DLTA) (?A)
                 (?F) (?F) (?F) (?F) (?A) (?A) (?A) (PI) (PI) (DLTA)
                 (DLTA) (SG) (PI) (PI) (SG) (SG)
 Beta  Orbitals:
       Occupied  (SG) (SG) (SG) (?A)
       Virtual   (?A) (SG) (SG) (SG) (?A) (?A) (PI) (PI) (SG) (SG)
                 (DLTA) (DLTA) (SG) (PI) (PI) (SG) (DLTA) (DLTA)
                 (?A) (?A) (?A) (?A) (SG) (PI) (PI) (SG) (SG) (PHI)
                 (PHI) (DLTA) (DLTA) (SG) (DLTA) (DLTA) (PI) (PI)
                 (SG) (PI) (PI) (SG) (PHI) (PHI) (DLTA) (DLTA)
                 (PI) (PI) (SG) (PI) (PI) (?B) (?B) (?B) (PI) (PI)
                 (SG) (?C) (?C) (PHI) (PHI) (SG) (PI) (PI) (DLTA)
                 (DLTA) (SG) (PI) (PI) (PHI) (PHI) (?D) (?D) (?D)
                 (PI) (PI) (DLTA) (DLTA) (SG) (PI) (PI) (SG) (SG)
 Initial guess <Sx>= 0.0000 <Sy>= 0.0000 <Sz>= 0.5000 <S**2>= 0.7524 S= 0.5012
 Keep R1 and R2 ints in memory in symmetry-blocked form, NReq=11229945.
 Requested convergence on RMS density matrix=1.00D-08 within 128 cycles.
 Requested convergence on MAX density matrix=1.00D-06.
 Requested convergence on             energy=1.00D-06.
 No special actions if energy rises.
 SCF Done:  E(UB3LYP) =  -75.7723052661     A.U. after    1 cycles
            NFock=  1  Conv=0.88D-09     -V/T= 2.0035
 <Sx>= 0.0000 <Sy>= 0.0000 <Sz>= 0.5000 <S**2>= 0.7524 S= 0.5012
 <L.S>=  0.00000000000    
 Annihilation of the first spin contaminant:
 S**2 before annihilation     0.7524,   after     0.7500
 DoSCS=F DFT=T ScalE2(SS,OS)=  1.000000  1.000000
 Range of M.O.s used for correlation:     1    85
 NBasis=    85 NAE=     5 NBE=     4 NFC=     0 NFV=     0
 NROrb=     85 NOA=     5 NOB=     4 NVA=    80 NVB=    81

 **** Warning!!: The largest alpha MO coefficient is  0.11276277D+02


 **** Warning!!: The largest beta MO coefficient is  0.11258283D+02

 Symmetrizing basis deriv contribution to polar:
 IMax=3 JMax=2 DiffMx= 0.00D+00
 G2DrvN: will do     3 centers at a time, making    1 passes.
 Calling FoFCou, ICntrl=  3107 FMM=F I1Cent=   0 AccDes= 0.00D+00.
 End of G2Drv F.D. properties file   721 does not exist.
 End of G2Drv F.D. properties file   722 does not exist.
 End of G2Drv F.D. properties file   788 does not exist.
          IDoAtm=11
          Differentiating once with respect to electric field.
                with respect to dipole field.
          Differentiating once with respect to nuclear coordinates.
 Keep R1 and R2 ints in memory in symmetry-blocked form, NReq=11231223.
          There are     9 degrees of freedom in the 1st order CPHF.  IDoFFX=6 NUNeed=     3.
      6 vectors produced by pass  0 Test12= 8.04D-15 1.11D-08 XBig12= 7.38D+00 1.47D+00.
 AX will form     6 AO Fock derivatives at one time.
      6 vectors produced by pass  1 Test12= 8.04D-15 1.11D-08 XBig12= 9.59D-01 3.74D-01.
      6 vectors produced by pass  2 Test12= 8.04D-15 1.11D-08 XBig12= 1.04D-02 3.96D-02.
      6 vectors produced by pass  3 Test12= 8.04D-15 1.11D-08 XBig12= 7.39D-05 3.37D-03.
      6 vectors produced by pass  4 Test12= 8.04D-15 1.11D-08 XBig12= 1.10D-06 3.90D-04.
      6 vectors produced by pass  5 Test12= 8.04D-15 1.11D-08 XBig12= 3.80D-09 3.37D-05.
      4 vectors produced by pass  6 Test12= 8.04D-15 1.11D-08 XBig12= 3.08D-11 1.97D-06.
      2 vectors produced by pass  7 Test12= 8.04D-15 1.11D-08 XBig12= 9.16D-14 7.62D-08.
 InvSVY:  IOpt=1 It=  1 EMax= 2.22D-16
 Solved reduced A of dimension    42 with     6 vectors.
 Isotropic polarizability for W=    0.000000        5.88 Bohr**3.
 End of Minotr F.D. properties file   721 does not exist.
 End of Minotr F.D. properties file   722 does not exist.
 End of Minotr F.D. properties file   788 does not exist.

 **********************************************************************

            Population analysis using the SCF density.

 **********************************************************************

 Orbital symmetries:
 Alpha Orbitals:
       Occupied  (SG) (SG) (SG) (PI) (PI)
       Virtual   (SG) (SG) (SG) (PI) (PI) (PI) (PI) (SG) (?A) (?A)
                 (?A) (?A) (PI) (PI) (SG) (DLTA) (DLTA) (?B) (?B)
                 (?B) (?B) (SG) (PI) (PI) (?A) (SG) (PHI) (PHI)
                 (?A) (?A) (?A) (?C) (?C) (PI) (PI) (?C) (PI) (PI)
                 (SG) (PHI) (PHI) (DLTA) (DLTA) (PI) (PI) (SG)
                 (PI) (PI) (?D) (?D) (?D) (PI) (PI) (SG) (?E) (?E)
                 (PHI) (PHI) (SG) (PI) (PI) (DLTA) (DLTA) (?A)
                 (?F) (?F) (?F) (?F) (?A) (?A) (?A) (PI) (PI) (DLTA)
                 (DLTA) (SG) (PI) (PI) (SG) (SG)
 Beta  Orbitals:
       Occupied  (SG) (SG) (SG) (?A)
       Virtual   (?A) (SG) (SG) (SG) (?A) (?A) (PI) (PI) (SG) (SG)
                 (DLTA) (DLTA) (SG) (PI) (PI) (SG) (DLTA) (DLTA)
                 (?A) (?A) (?A) (?A) (SG) (PI) (PI) (SG) (SG) (PHI)
                 (PHI) (DLTA) (DLTA) (SG) (DLTA) (DLTA) (PI) (PI)
                 (SG) (PI) (PI) (SG) (PHI) (PHI) (DLTA) (DLTA)
                 (PI) (PI) (SG) (PI) (PI) (?B) (?B) (?B) (PI) (PI)
                 (SG) (?C) (?C) (PHI) (PHI) (SG) (PI) (PI) (DLTA)
                 (DLTA) (SG) (PI) (PI) (PHI) (PHI) (?D) (?D) (?D)
                 (PI) (PI) (DLTA) (DLTA) (SG) (PI) (PI) (SG) (SG)
 Unable to determine electronic state:  an orbital has unidentified symmetry.
 Alpha  occ. eigenvalues --  -19.20005  -1.02325  -0.48355  -0.42341  -0.35091
 Alpha virt. eigenvalues --    0.01487   0.29635   0.34903   0.37701   0.40351
 Alpha virt. eigenvalues --    0.50797   0.51980   0.60360   0.91608   0.98303
 Alpha virt. eigenvalues --    0.98365   1.17232   1.24040   1.26787   1.53935
 Alpha virt. eigenvalues --    1.97135   1.97153   2.06922   2.09275   2.22766
 Alpha virt. eigenvalues --    2.26561   2.36081   2.60140   2.62968   2.80769
 Alpha virt. eigenvalues --    3.00793   3.05169   3.05200   3.38273   3.39532
 Alpha virt. eigenvalues --    3.41473   3.67080   3.67115   3.70793   3.75362
 Alpha virt. eigenvalues --    4.13389   4.39248   4.42821   4.83037   5.75934
 Alpha virt. eigenvalues --    5.75934   6.43059   6.43065   6.95655   6.97159
 Alpha virt. eigenvalues --    6.99619   7.65509   7.66904   7.72244   7.74386
 Alpha virt. eigenvalues --    7.74400   8.32783   8.34921   8.41017   8.79035
 Alpha virt. eigenvalues --    8.79046   8.96499   8.96511   9.28264   9.66759
 Alpha virt. eigenvalues --    9.73315  10.03047  10.03073  10.62894  10.68224
 Alpha virt. eigenvalues --   10.73030  10.83369  10.83422  10.99398  11.00748
 Alpha virt. eigenvalues --   11.05437  11.59491  11.64789  11.85958  11.86005
 Alpha virt. eigenvalues --   13.32025  13.66099  13.70788  15.79272  40.75554
  Beta  occ. eigenvalues --  -19.17447  -0.95272  -0.45810  -0.32541
  Beta virt. eigenvalues --   -0.17756   0.02045   0.30226   0.35361   0.41069
  Beta virt. eigenvalues --    0.43256   0.51808   0.51863   0.62383   0.92373
  Beta virt. eigenvalues --    1.01735   1.02142   1.17769   1.27092   1.27379
  Beta virt. eigenvalues --    1.54856   1.97767   1.97833   2.09333   2.09750
  Beta virt. eigenvalues --    2.27618   2.29578   2.36513   2.63429   2.63764
  Beta virt. eigenvalues --    2.83296   3.02351   3.09688   3.09849   3.42685
  Beta virt. eigenvalues --    3.43039   3.43568   3.73974   3.74933   3.76198
  Beta virt. eigenvalues --    3.76876   4.15025   4.43346   4.43597   4.85165
  Beta virt. eigenvalues --    5.76237   5.76242   6.44168   6.44331   6.96660
  Beta virt. eigenvalues --    6.96758   7.00404   7.66347   7.66513   7.72882
  Beta virt. eigenvalues --    7.74067   7.74111   8.34803   8.34942   8.41891
  Beta virt. eigenvalues --    8.86094   8.86250   9.01637   9.01771   9.29465
  Beta virt. eigenvalues --    9.75433   9.77499  10.06718  10.07174  10.66123
  Beta virt. eigenvalues --   10.73774  10.74392  10.92726  10.93272  11.06472
  Beta virt. eigenvalues --   11.06700  11.08010  11.65878  11.67511  11.95623
  Beta virt. eigenvalues --   11.97047  13.33962  13.71794  13.73651  15.81101
  Beta virt. eigenvalues --   40.78715
          Condensed to atoms (all electrons):
               1          2
     1  O    7.917544   0.346386
     2  H    0.346386   0.389684
          Atomic-Atomic Spin Densities.
               1          2
     1  O    1.016319  -0.002874
     2  H   -0.002874  -0.010570
 Mulliken charges and spin densities:
               1          2
     1  O   -0.263930   1.013444
     2  H    0.263930  -0.013444
 Sum of Mulliken charges =   0.00000   1.00000
 Mulliken charges and spin densities with hydrogens summed into heavy atoms:
               1          2
     1  O    0.000000   1.000000
 APT charges:
               1
     1  O   -0.273762
     2  H    0.273762
 Sum of APT charges =   0.00000
 APT charges with hydrogens summed into heavy atoms:
               1
     1  O    0.000000
 Electronic spatial extent (au):  <R**2>=             15.5309
 Charge=              0.0000 electrons
 Dipole moment (field-independent basis, Debye):
    X=              0.0000    Y=              0.0000    Z=             -1.6773  Tot=              1.6773
 Quadrupole moment (field-independent basis, Debye-Ang):
   XX=             -5.4778   YY=             -6.7241   ZZ=             -4.6405
   XY=              0.0000   XZ=              0.0000   YZ=              0.0000
 Traceless Quadrupole moment (field-independent basis, Debye-Ang):
   XX=              0.1363   YY=             -1.1100   ZZ=              0.9736
   XY=              0.0000   XZ=              0.0000   YZ=              0.0000
 Octapole moment (field-independent basis, Debye-Ang**2):
  XXX=              0.0000  YYY=              0.0000  ZZZ=             -1.9025  XYY=              0.0000
  XXY=              0.0000  XXZ=             -0.1559  XZZ=              0.0000  YZZ=              0.0000
  YYZ=             -0.2252  XYZ=              0.0000
 Hexadecapole moment (field-independent basis, Debye-Ang**3):
 XXXX=             -3.8560 YYYY=             -5.6497 ZZZZ=             -5.5807 XXXY=              0.0000
 XXXZ=              0.0000 YYYX=              0.0000 YYYZ=              0.0000 ZZZX=              0.0000
 ZZZY=              0.0000 XXYY=             -1.5844 XXZZ=             -1.8065 YYZZ=             -2.1332
 XXYZ=              0.0000 YYXZ=              0.0000 ZZXY=              0.0000
 N-N= 4.348149036030D+00 E-N=-1.881879972570D+02  KE= 7.550665883760D+01
 Symmetry A1   KE= 6.818963063788D+01
 Symmetry A2   KE= 4.345522682626D-35
 Symmetry B1   KE= 2.536069339706D+00
 Symmetry B2   KE= 4.780958860019D+00
 Symmetry A1   SP= 1.867464101645D-15
 Symmetry A2   SP= 7.634657228138D-36
 Symmetry B1   SP= 1.000000000000D+00
 Symmetry B2   SP= 1.511109452083D-15
  Exact polarizability:   4.632   0.000   5.238   0.000  -0.000   7.780
 Approx polarizability:   5.471  -0.000   5.656  -0.000  -0.000   9.792
                          Isotropic Fermi Contact Couplings
        Atom                 a.u.       MegaHertz       Gauss      10(-4) cm-1
     1  O(17)              0.00730      -4.42496      -1.57894      -1.47601
     2  H(1)              -0.01399     -62.51602     -22.30727     -20.85310
 --------------------------------------------------------
       Center         ----  Spin Dipole Couplings  ----
                      3XX-RR        3YY-RR        3ZZ-RR
 --------------------------------------------------------
     1   Atom        3.990661     -2.011897     -1.978764
     2   Atom       -0.030148     -0.134070      0.164218
 --------------------------------------------------------
                        XY            XZ            YZ
 --------------------------------------------------------
     1   Atom        0.000000      0.000000      0.000000
     2   Atom        0.000000      0.000000      0.000000
 --------------------------------------------------------


 ---------------------------------------------------------------------------------
              Anisotropic Spin Dipole Couplings in Principal Axis System
 ---------------------------------------------------------------------------------

       Atom             a.u.   MegaHertz   Gauss  10(-4) cm-1        Axes

              Baa    -2.0119   145.579    51.946    48.560 -0.0000  1.0000  0.0000
     1 O(17)  Bbb    -1.9788   143.182    51.091    47.760  0.0000  0.0000  1.0000
              Bcc     3.9907  -288.761  -103.037   -96.320  1.0000  0.0000  0.0000
 
              Baa    -0.1341   -71.534   -25.525   -23.861 -0.0000  1.0000  0.0000
     2 H(1)   Bbb    -0.0301   -16.086    -5.740    -5.366  1.0000  0.0000  0.0000
              Bcc     0.1642    87.619    31.265    29.227  0.0000  0.0000  1.0000
 

 ---------------------------------------------------------------------------------

 Calling FoFJK, ICntrl=    100127 FMM=F ISym2X=1 I1Cent= 0 IOpClX= 1 NMat=1 NMatS=1 NMatT=0.
 Full mass-weighted force constant matrix:
 Low frequencies ---   -7.8954   -0.0012   -0.0009    0.0012   24.7430 3701.3603
 Diagonal vibrational polarizability:
        0.0000000       0.0000000       0.0218636
 Harmonic frequencies (cm**-1), IR intensities (KM/Mole), Raman scattering
 activities (A**4/AMU), depolarization ratios for plane and unpolarized
 incident light, reduced masses (AMU), force constants (mDyne/A),
 and normal coordinates:
                      1
                     SG
 Frequencies --   3701.3603
 Red. masses --      1.0671
 Frc consts  --      8.6134
 IR Inten    --     11.1304
  Atom  AN      X      Y      Z
     1   8    -0.00  -0.00  -0.06
     2   1    -0.00  -0.00   1.00

 -------------------
 - Thermochemistry -
 -------------------
 Temperature   298.150 Kelvin.  Pressure   1.00000 Atm.
 Atom     1 has atomic number  8 and mass  15.99491
 Atom     2 has atomic number  1 and mass   1.00783
 Molecular mass:    17.00274 amu.
 Principal axes and moments of inertia in atomic units:
                           1         2         3
     Eigenvalues --     0.00000   3.20937   3.20937
           X            0.00000  -0.00000   1.00000
           Y            0.00000   1.00000   0.00000
           Z            1.00000   0.00000   0.00000
 This molecule is a prolate symmetric top.
 Rotational symmetry number  1.
 Rotational temperature (Kelvin)     26.98786
 Rotational constant (GHZ):         562.335677
 Zero-point vibrational energy      22139.1 (Joules/Mol)
                                    5.29136 (Kcal/Mol)
 Vibrational temperatures:   5325.43
          (Kelvin)
 
 Zero-point correction=                           0.008432 (Hartree/Particle)
 Thermal correction to Energy=                    0.010793
 Thermal correction to Enthalpy=                  0.011737
 Thermal correction to Gibbs Free Energy=        -0.008492
 Sum of electronic and zero-point Energies=            -75.763873
 Sum of electronic and thermal Energies=               -75.761512
 Sum of electronic and thermal Enthalpies=             -75.760568
 Sum of electronic and thermal Free Energies=          -75.780797
 
                     E (Thermal)             CV                S
                      KCal/Mol        Cal/Mol-Kelvin    Cal/Mol-Kelvin
 Total                    6.773              4.968             42.575
 Electronic               0.000              0.000              1.377
 Translational            0.889              2.981             34.437
 Rotational               0.592              1.987              6.761
 Vibrational              5.291              0.000              0.000
                       Q            Log10(Q)             Ln(Q)
 Total Bot       0.805257D+04          3.905935          8.993747
 Total V=0       0.608876D+08          7.784529         17.924540
 Vib (Bot)       0.132253D-03         -3.878594         -8.930793
 Vib (V=0)       0.100000D+01          0.000000          0.000000
 Electronic      0.200000D+01          0.301030          0.693147
 Translational   0.275570D+07          6.440232         14.829183
 Rotational      0.110476D+02          1.043266          2.402210
 ***** Axes restored to original set *****
 -------------------------------------------------------------------
 Center     Atomic                   Forces (Hartrees/Bohr)
 Number     Number              X              Y              Z
 -------------------------------------------------------------------
      1        8           0.000000323   -0.000000000   -0.000000000
      2        1          -0.000000323   -0.000000000   -0.000000000
 -------------------------------------------------------------------
 Cartesian Forces:  Max     0.000000323 RMS     0.000000187
 FormGI is forming the generalized inverse of G from B-inverse, IUseBI=4.

 GradGradGradGradGradGradGradGradGradGradGradGradGradGradGradGradGradGrad
 Berny optimization.
 Internal  Forces:  Max     0.000000323 RMS     0.000000323
 Search for a local minimum.
 Step number   1 out of a maximum of    2
 All quantities printed in internal units (Hartrees-Bohrs-Radians)
 Second derivative matrix not updated -- analytic derivatives used.
 The second derivative matrix:
                          R1
           R1           0.49154
 ITU=  0
     Eigenvalues ---    0.49154
 Angle between quadratic step and forces=  90.00 degrees.
 Linear search not attempted -- first point.
 Iteration  1 RMS(Cart)=  0.00000047 RMS(Int)=  0.00000000
 ClnCor:  largest displacement from symmetrization is 0.00D+00 for atom     0.
 Variable       Old X    -DE/DX   Delta X   Delta X   Delta X     New X
                                 (Linear)    (Quad)   (Total)
    R1        1.83986  -0.00000   0.00000  -0.00000  -0.00000   1.83986
         Item               Value     Threshold  Converged?
 Maximum Force            0.000000     0.000450     YES
 RMS     Force            0.000000     0.000300     YES
 Maximum Displacement     0.000000     0.001800     YES
 RMS     Displacement     0.000000     0.001200     YES
 Predicted change in Energy=-1.063492D-13
 Optimization completed.
    -- Stationary point found.
                           ----------------------------
                           !   Optimized Parameters   !
                           ! (Angstroms and Degrees)  !
 --------------------------                            --------------------------
 ! Name  Definition              Value          Derivative Info.                !
 --------------------------------------------------------------------------------
 ! R1    R(1,2)                  0.9736         -DE/DX =    0.0                 !
 --------------------------------------------------------------------------------
 GradGradGradGradGradGradGradGradGradGradGradGradGradGradGradGradGradGrad


 ----------------------------------------------------------------------

 Electric dipole moment (input orientation):
 (Debye = 10**-18 statcoulomb cm , SI units = C m)
                  (au)            (Debye)         (10**-30 SI)
   Tot        0.659882D+00      0.167725D+01      0.559471D+01
   x          0.659882D+00      0.167725D+01      0.559471D+01
   y          0.000000D+00      0.000000D+00      0.000000D+00
   z          0.000000D+00      0.000000D+00      0.000000D+00

 Dipole polarizability, Alpha (input orientation).
 (esu units = cm**3 , SI units = C**2 m**2 J**-1)
 Alpha(0;0):
               (au)            (10**-24 esu)      (10**-40 SI)
   iso        0.588329D+01      0.871814D+00      0.970024D+00
   aniso      0.289318D+01      0.428726D+00      0.477022D+00
   xx         0.778010D+01      0.115289D+01      0.128277D+01
   yx         0.000000D+00      0.000000D+00      0.000000D+00
   yy         0.523781D+01      0.776163D+00      0.863598D+00
   zx         0.000000D+00      0.000000D+00      0.000000D+00
   zy         0.000000D+00      0.000000D+00      0.000000D+00
   zz         0.463197D+01      0.686387D+00      0.763709D+00

 ----------------------------------------------------------------------

 Dipole orientation:
     8          0.02496876         -0.67399384         -1.92022937
     1          0.02496876         -0.67399384         -0.08036604

 Electric dipole moment (dipole orientation):
 (Debye = 10**-18 statcoulomb cm , SI units = C m)
                  (au)            (Debye)         (10**-30 SI)
   Tot        0.659882D+00      0.167725D+01      0.559471D+01
   x          0.000000D+00      0.000000D+00      0.000000D+00
   y          0.000000D+00      0.000000D+00      0.000000D+00
   z          0.659882D+00      0.167725D+01      0.559471D+01

 Dipole polarizability, Alpha (dipole orientation).
 (esu units = cm**3 , SI units = C**2 m**2 J**-1)
 Alpha(0;0):
               (au)            (10**-24 esu)      (10**-40 SI)
   iso        0.588329D+01      0.871814D+00      0.970024D+00
   aniso      0.289318D+01      0.428726D+00      0.477022D+00
   xx         0.463197D+01      0.686387D+00      0.763709D+00
   yx         0.000000D+00      0.000000D+00      0.000000D+00
   yy         0.523781D+01      0.776163D+00      0.863598D+00
   zx         0.000000D+00      0.000000D+00      0.000000D+00
   zy         0.000000D+00      0.000000D+00      0.000000D+00
   zz         0.778010D+01      0.115289D+01      0.128277D+01

 ----------------------------------------------------------------------
 1\1\GINC-BNODE0307\Freq\UB3LYP\CC-pVQZ\H1O1(2)\JASM3285\07-Jul-2020\0\
 \#N Geom=AllCheck Guess=TCheck SCRF=Check GenChk UB3LYP/CC-pVQZ Freq\\
 Title Card Required\\0,2\O,-1.0161416249,-0.35666218,-0.0132129\H,-0.0
 425278751,-0.35666218,-0.0132129\\Version=ES64L-G16RevA.03\HF=-75.7723
 053\S2=0.752417\S2-1=0.\S2A=0.750004\RMSD=8.770e-10\RMSF=1.867e-07\Zer
 oPoint=0.0084323\Thermal=0.0107928\Dipole=0.6598817,0.,0.\DipoleDeriv=
 -0.1040409,0.,0.,0.,-0.3586493,0.,0.,0.,-0.3585956,0.1040409,0.,0.,0.,
 0.3586493,0.,0.,0.,0.3585956\Polar=7.7801023,0.,5.2378081,0.,0.,4.6319
 706\Quadrupole=0.7238847,-0.8252552,0.1013705,0.,0.,0.\PG=C*V [C*(H1O1
 )]\NImag=0\\0.49154392,0.,-0.00000224,0.,0.,0.00002197,-0.49154392,0.,
 0.,0.49154392,0.,0.00000224,0.,0.,-0.00000224,0.,0.,-0.00002197,0.,0.,
 0.00002197\\-0.00000032,0.,0.,0.00000032,0.,0.\\\@


 ... I FELL INTO A REVERIE ... THE ATOMS WERE GAMBOLING BEFORE MY EYES
 ... I SAW HOW TWO SMALL ONES UNITED TO FORM A PAIR;
 HOW THE LARGER ONES SEIZED TWO OF THE SMALLER ONES;
 HOW STILL LARGER ONES KEPT HOLD OF THREE OR FOUR
 SMALLER ONES ... I SAW HOW THE LARGER ONES FORMED A CHAIN ...
 THIS WAS THE ORIGIN OF THE STRUCTURE THEORY.

                                   -- C.F.KEKULE VON STRADONITZ
 Job cpu time:       0 days  0 hours  0 minutes 21.3 seconds.
 Elapsed time:       0 days  0 hours  0 minutes 22.0 seconds.
 File lengths (MBytes):  RWF=     22 Int=      0 D2E=      0 Chk=      3 Scr=      2
 Normal termination of Gaussian 16 at Tue Jul  7 20:12:41 2020.
