 Entering Gaussian System, Link 0=g16
 Input=methyl_rotor.com
 Output=methyl_rotor.log
 Initial command:
 /projects/jasm3285/g16/l1.exe "/rc_scratch/jasm3285/Gau-68797.inp" -scrdir="/rc_scratch/jasm3285/"
 Entering Link 1 = /projects/jasm3285/g16/l1.exe PID=     68798.
  
 Copyright (c) 1988,1990,1992,1993,1995,1998,2003,2009,2016,
            Gaussian, Inc.  All Rights Reserved.
  
 This is part of the Gaussian(R) 16 program.  It is based on
 the Gaussian(R) 09 system (copyright 2009, Gaussian, Inc.),
 the Gaussian(R) 03 system (copyright 2003, Gaussian, Inc.),
 the Gaussian(R) 98 system (copyright 1998, Gaussian, Inc.),
 the Gaussian(R) 94 system (copyright 1995, Gaussian, Inc.),
 the Gaussian 92(TM) system (copyright 1992, Gaussian, Inc.),
 the Gaussian 90(TM) system (copyright 1990, Gaussian, Inc.),
 the Gaussian 88(TM) system (copyright 1988, Gaussian, Inc.),
 the Gaussian 86(TM) system (copyright 1986, Carnegie Mellon
 University), and the Gaussian 82(TM) system (copyright 1983,
 Carnegie Mellon University). Gaussian is a federally registered
 trademark of Gaussian, Inc.
  
 This software contains proprietary and confidential information,
 including trade secrets, belonging to Gaussian, Inc.
  
 This software is provided under written license and may be
 used, copied, transmitted, or stored only in accord with that
 written license.
  
 The following legend is applicable only to US Government
 contracts under FAR:
  
                    RESTRICTED RIGHTS LEGEND
  
 Use, reproduction and disclosure by the US Government is
 subject to restrictions as set forth in subparagraphs (a)
 and (c) of the Commercial Computer Software - Restricted
 Rights clause in FAR 52.227-19.
  
 Gaussian, Inc.
 340 Quinnipiac St., Bldg. 40, Wallingford CT 06492
  
  
 ---------------------------------------------------------------
 Warning -- This program may not be used in any manner that
 competes with the business of Gaussian, Inc. or will provide
 assistance to any competitor of Gaussian, Inc.  The licensee
 of this program is prohibited from giving any competitor of
 Gaussian, Inc. access to this program.  By using this program,
 the user acknowledges that Gaussian, Inc. is engaged in the
 business of creating and licensing software in the field of
 computational chemistry and represents and warrants to the
 licensee that it is not a competitor of Gaussian, Inc. and that
 it will not use this program in any manner prohibited above.
 ---------------------------------------------------------------
  

 Cite this work as:
 Gaussian 16, Revision A.03,
 M. J. Frisch, G. W. Trucks, H. B. Schlegel, G. E. Scuseria, 
 M. A. Robb, J. R. Cheeseman, G. Scalmani, V. Barone, 
 G. A. Petersson, H. Nakatsuji, X. Li, M. Caricato, A. V. Marenich, 
 J. Bloino, B. G. Janesko, R. Gomperts, B. Mennucci, H. P. Hratchian, 
 J. V. Ortiz, A. F. Izmaylov, J. L. Sonnenberg, D. Williams-Young, 
 F. Ding, F. Lipparini, F. Egidi, J. Goings, B. Peng, A. Petrone, 
 T. Henderson, D. Ranasinghe, V. G. Zakrzewski, J. Gao, N. Rega, 
 G. Zheng, W. Liang, M. Hada, M. Ehara, K. Toyota, R. Fukuda, 
 J. Hasegawa, M. Ishida, T. Nakajima, Y. Honda, O. Kitao, H. Nakai, 
 T. Vreven, K. Throssell, J. A. Montgomery, Jr., J. E. Peralta, 
 F. Ogliaro, M. J. Bearpark, J. J. Heyd, E. N. Brothers, K. N. Kudin, 
 V. N. Staroverov, T. A. Keith, R. Kobayashi, J. Normand, 
 K. Raghavachari, A. P. Rendell, J. C. Burant, S. S. Iyengar, 
 J. Tomasi, M. Cossi, J. M. Millam, M. Klene, C. Adamo, R. Cammi, 
 J. W. Ochterski, R. L. Martin, K. Morokuma, O. Farkas, 
 J. B. Foresman, and D. J. Fox, Gaussian, Inc., Wallingford CT, 2016.
 
 ******************************************
 Gaussian 16:  ES64L-G16RevA.03 25-Dec-2016
                12-Feb-2018 
 ******************************************
 ----------------------------------------------------------------------
 # opt=(calcfc,tight,modredundant,noeigentest) freq cbs-qb3 scf=qc geom
 =connectivity ccsd=maxcyc=1000 optcyc=100
 ----------------------------------------------------------------------
 1/6=100,7=10,10=4,11=1,18=120,19=15,26=3,38=1,57=2/1,3;
 2/9=110,12=2,17=6,18=5,40=1/2;
 3/5=4,6=6,7=700,11=2,25=1,30=1,71=2,74=-5,140=1/1,2,3;
 4//1;
 5/5=2,8=3,38=5/8;
 8/6=4,10=90,11=11/1;
 11/6=1,8=1,9=11,15=111,16=1/1,2,10;
 10/6=1,13=1/2;
 6/7=2,8=2,9=2,10=2,28=1/1;
 7/10=1,18=20,25=1/1,2,3,16;
 1/6=100,7=10,10=4,11=1,18=20,19=15,26=3/3(2);
 2/9=110/2;
 99//99;
 2/9=110/2;
 3/5=4,6=6,7=700,11=2,25=1,30=1,71=1,74=-5/1,2,3;
 4/5=5,16=3,69=1/1;
 5/5=2,8=3,38=5/8;
 7//1,2,3,16;
 1/6=100,7=10,11=1,18=20,19=15,26=3/3(-5);
 2/9=110/2;
 6/7=2,8=2,9=2,10=2,19=2,28=1/1;
 99/9=1/99;
 -------------------
 Title Card Required
 -------------------
 Symbolic Z-matrix:
 Charge =  0 Multiplicity = 2
 C                    -1.00162   1.21849  -0.10667 
 H                    -0.58323   1.37087  -1.10269 
 H                    -0.70739   2.05816   0.53042 
 H                    -2.09373   1.22356  -0.17714 
 C                    -0.50485  -0.10733   0.46013 
 H                    -0.88332  -0.23955   1.48663 
 C                     1.02432  -0.18024   0.52257 
 H                     1.40973   0.45215   1.34769 
 H                     1.33758  -1.20474   0.79472 
 O                    -0.90517  -1.21384  -0.35061 
 H                    -1.85622  -1.15947  -0.48428 
 O                     1.68886   0.20302  -0.60583 
 
 The following ModRedundant input section has been read:
 D       2       1       5       6 S  24 15.000                                
 

 GradGradGradGradGradGradGradGradGradGradGradGradGradGradGradGradGradGrad
 Berny optimization.
 Initialization pass.
                           ----------------------------
                           !    Initial Parameters    !
                           ! (Angstroms and Degrees)  !
 --------------------------                            --------------------------
 ! Name  Definition              Value          Derivative Info.                !
 --------------------------------------------------------------------------------
 ! R1    R(1,2)                  1.091          calculate D2E/DX2 analytically  !
 ! R2    R(1,3)                  1.0943         calculate D2E/DX2 analytically  !
 ! R3    R(1,4)                  1.0944         calculate D2E/DX2 analytically  !
 ! R4    R(1,5)                  1.5251         calculate D2E/DX2 analytically  !
 ! R5    R(5,6)                  1.102          calculate D2E/DX2 analytically  !
 ! R6    R(5,7)                  1.5322         calculate D2E/DX2 analytically  !
 ! R7    R(5,10)                 1.429          calculate D2E/DX2 analytically  !
 ! R8    R(7,8)                  1.1087         calculate D2E/DX2 analytically  !
 ! R9    R(7,9)                  1.1054         calculate D2E/DX2 analytically  !
 ! R10   R(7,12)                 1.3645         calculate D2E/DX2 analytically  !
 ! R11   R(10,11)                0.9619         calculate D2E/DX2 analytically  !
 ! A1    A(2,1,3)              108.7364         calculate D2E/DX2 analytically  !
 ! A2    A(2,1,4)              108.86           calculate D2E/DX2 analytically  !
 ! A3    A(2,1,5)              109.621          calculate D2E/DX2 analytically  !
 ! A4    A(3,1,4)              107.5926         calculate D2E/DX2 analytically  !
 ! A5    A(3,1,5)              111.2906         calculate D2E/DX2 analytically  !
 ! A6    A(4,1,5)              110.6723         calculate D2E/DX2 analytically  !
 ! A7    A(1,5,6)              109.7934         calculate D2E/DX2 analytically  !
 ! A8    A(1,5,7)              112.4337         calculate D2E/DX2 analytically  !
 ! A9    A(1,5,10)             111.7807         calculate D2E/DX2 analytically  !
 ! A10   A(6,5,7)              107.4031         calculate D2E/DX2 analytically  !
 ! A11   A(6,5,10)             109.8381         calculate D2E/DX2 analytically  !
 ! A12   A(7,5,10)             105.4189         calculate D2E/DX2 analytically  !
 ! A13   A(5,7,8)              110.4941         calculate D2E/DX2 analytically  !
 ! A14   A(5,7,9)              109.6933         calculate D2E/DX2 analytically  !
 ! A15   A(5,7,12)             116.0403         calculate D2E/DX2 analytically  !
 ! A16   A(8,7,9)              104.2945         calculate D2E/DX2 analytically  !
 ! A17   A(8,7,12)             106.6153         calculate D2E/DX2 analytically  !
 ! A18   A(9,7,12)             109.0222         calculate D2E/DX2 analytically  !
 ! A19   A(5,10,11)            108.1833         calculate D2E/DX2 analytically  !
 ! D1    D(2,1,5,6)            177.0639         Scan                            !
 ! D2    D(2,1,5,7)             57.56           calculate D2E/DX2 analytically  !
 ! D3    D(2,1,5,10)           -60.7815         calculate D2E/DX2 analytically  !
 ! D4    D(3,1,5,6)             56.7379         calculate D2E/DX2 analytically  !
 ! D5    D(3,1,5,7)            -62.766          calculate D2E/DX2 analytically  !
 ! D6    D(3,1,5,10)           178.8925         calculate D2E/DX2 analytically  !
 ! D7    D(4,1,5,6)            -62.8492         calculate D2E/DX2 analytically  !
 ! D8    D(4,1,5,7)            177.6469         calculate D2E/DX2 analytically  !
 ! D9    D(4,1,5,10)            59.3054         calculate D2E/DX2 analytically  !
 ! D10   D(1,5,7,8)             73.9319         calculate D2E/DX2 analytically  !
 ! D11   D(1,5,7,9)           -171.628          calculate D2E/DX2 analytically  !
 ! D12   D(1,5,7,12)           -47.56           calculate D2E/DX2 analytically  !
 ! D13   D(6,5,7,8)            -46.9543         calculate D2E/DX2 analytically  !
 ! D14   D(6,5,7,9)             67.4858         calculate D2E/DX2 analytically  !
 ! D15   D(6,5,7,12)          -168.4463         calculate D2E/DX2 analytically  !
 ! D16   D(10,5,7,8)          -164.043          calculate D2E/DX2 analytically  !
 ! D17   D(10,5,7,9)           -49.6029         calculate D2E/DX2 analytically  !
 ! D18   D(10,5,7,12)           74.465          calculate D2E/DX2 analytically  !
 ! D19   D(1,5,10,11)          -52.3729         calculate D2E/DX2 analytically  !
 ! D20   D(6,5,10,11)           69.7561         calculate D2E/DX2 analytically  !
 ! D21   D(7,5,10,11)         -174.8186         calculate D2E/DX2 analytically  !
 --------------------------------------------------------------------------------
 Trust Radius=3.00D-01 FncErr=1.00D-07 GrdErr=1.00D-06 EigMax=2.50D+02 EigMin=1.00D-04
 Number of optimizations in scan=  25
 Number of steps in this run=    100 maximum allowed number of steps=    100.
 GradGradGradGradGradGradGradGradGradGradGradGradGradGradGradGradGradGrad

                          Input orientation:                          
 ---------------------------------------------------------------------
 Center     Atomic      Atomic             Coordinates (Angstroms)
 Number     Number       Type             X           Y           Z
 ---------------------------------------------------------------------
      1          6           0       -1.001624    1.218490   -0.106671
      2          1           0       -0.583233    1.370871   -1.102686
      3          1           0       -0.707391    2.058155    0.530419
      4          1           0       -2.093731    1.223564   -0.177138
      5          6           0       -0.504847   -0.107328    0.460131
      6          1           0       -0.883316   -0.239554    1.486633
      7          6           0        1.024324   -0.180238    0.522568
      8          1           0        1.409725    0.452147    1.347685
      9          1           0        1.337584   -1.204739    0.794722
     10          8           0       -0.905173   -1.213839   -0.350610
     11          1           0       -1.856219   -1.159472   -0.484280
     12          8           0        1.688856    0.203024   -0.605831
 ---------------------------------------------------------------------
                    Distance matrix (angstroms):
                    1          2          3          4          5
     1  C    0.000000
     2  H    1.091016   0.000000
     3  H    1.094301   1.776177   0.000000
     4  H    1.094390   1.777623   1.766102   0.000000
     5  C    1.525072   2.152583   2.176070   2.168395   0.000000
     6  H    2.162986   3.063999   2.494947   2.524669   1.102011
     7  C    2.541033   2.762540   2.830071   3.490346   1.532181
     8  H    2.918396   3.289415   2.780174   3.897996   2.183197
     9  H    3.486609   3.731416   3.859826   4.314521   2.170441
    10  O    2.446433   2.711086   3.394300   2.717296   1.428961
    11  H    2.554922   2.899234   3.564063   2.414458   1.955793
    12  O    2.918735   2.602522   3.236445   3.941224   2.458643
                    6          7          8          9         10
     6  H    0.000000
     7  C    2.138231   0.000000
     8  H    2.399124   1.108721   0.000000
     9  H    2.518476   1.105351   1.748212   0.000000
    10  O    2.079705   2.356635   3.319408   2.518298   0.000000
    11  H    2.382706   3.204711   4.076739   3.440679   0.961931
    12  O    3.345198   1.364469   1.989020   2.016615   2.966753
                   11         12
    11  H    0.000000
    12  O    3.799832   0.000000
 Stoichiometry    C3H7O2(2)
 Framework group  C1[X(C3H7O2)]
 Deg. of freedom    30
 Full point group                 C1      NOp   1
 Largest Abelian subgroup         C1      NOp   1
 Largest concise Abelian subgroup C1      NOp   1
                         Standard orientation:                         
 ---------------------------------------------------------------------
 Center     Atomic      Atomic             Coordinates (Angstroms)
 Number     Number       Type             X           Y           Z
 ---------------------------------------------------------------------
      1          6           0       -1.001625    1.218490   -0.106671
      2          1           0       -0.583234    1.370871   -1.102686
      3          1           0       -0.707392    2.058155    0.530419
      4          1           0       -2.093732    1.223563   -0.177138
      5          6           0       -0.504847   -0.107328    0.460131
      6          1           0       -0.883316   -0.239554    1.486633
      7          6           0        1.024324   -0.180237    0.522568
      8          1           0        1.409725    0.452148    1.347685
      9          1           0        1.337585   -1.204738    0.794722
     10          8           0       -0.905172   -1.213839   -0.350610
     11          1           0       -1.856218   -1.159473   -0.484280
     12          8           0        1.688856    0.203025   -0.605831
 ---------------------------------------------------------------------
 Rotational constants (GHZ):           6.9178404           4.2107671           3.3036424
 Standard basis: 6-311G(2d,d,p) (5D, 7F)
 There are   137 symmetry adapted cartesian basis functions of A   symmetry.
 There are   132 symmetry adapted basis functions of A   symmetry.
   132 basis functions,   216 primitive gaussians,   137 cartesian basis functions
    21 alpha electrons       20 beta electrons
       nuclear repulsion energy       185.6016144145 Hartrees.
 NAtoms=   12 NActive=   12 NUniq=   12 SFac= 1.00D+00 NAtFMM=   60 NAOKFM=F Big=F
 Integral buffers will be    131072 words long.
 Raffenetti 2 integral format.
 Two-electron integral symmetry is turned on.
 One-electron integrals computed using PRISM.
 NBasis=   132 RedAO= T EigKep=  2.29D-03  NBF=   132
 NBsUse=   132 1.00D-06 EigRej= -1.00D+00 NBFU=   132
 ExpMin= 1.03D-01 ExpMax= 8.59D+03 ExpMxC= 1.30D+03 IAcc=3 IRadAn=         5 AccDes= 0.00D+00
 Harris functional with IExCor=  402 and IRadAn=       5 diagonalized for initial guess.
 HarFok:  IExCor=  402 AccDes= 0.00D+00 IRadAn=         5 IDoV= 1 UseB2=F ITyADJ=14
 ICtDFT=  3500011 ScaDFX=  1.000000  1.000000  1.000000  1.000000
 FoFCou: FMM=F IPFlag=           0 FMFlag=      100000 FMFlg1=           0
         NFxFlg=           0 DoJE=T BraDBF=F KetDBF=T FulRan=T
         wScrn=  0.000000 ICntrl=       500 IOpCl=  0 I1Cent=   200000004 NGrid=           0
         NMat0=    1 NMatS0=      1 NMatT0=    0 NMatD0=    1 NMtDS0=    0 NMtDT0=    0
 Petite list used in FoFCou.
 Initial guess <Sx>= 0.0000 <Sy>= 0.0000 <Sz>= 0.5000 <S**2>= 0.7500 S= 0.5000
 Keep R1 and R2 ints in memory in canonical form, NReq=78377335.
 Gradient too large for Newton-Raphson -- use scaled steepest descent instead.
     Minimum is close to point  3 DX=  2.40D-03 DF= -5.36D-06 DXR=  5.96D-03 DFR=  3.56D-05 which will be used.
 Gradient too large for Newton-Raphson -- use scaled steepest descent instead.
     Accept linear search using points  2 and  3.
 Gradient too large for Newton-Raphson -- use scaled steepest descent instead.
 Gradient too large for Newton-Raphson -- use scaled steepest descent instead.
     Accept linear search using points  1 and  2.
 Gradient too large for Newton-Raphson -- use scaled steepest descent instead.
 LinEq1:  Iter=  0 NonCon=     1 RMS=6.86D-05 Max=1.98D-03 NDo=     1
 AX will form     1 AO Fock derivatives at one time.
 LinEq1:  Iter=  1 NonCon=     1 RMS=7.42D-05 Max=2.84D-03 NDo=     1
 LinEq1:  Iter=  2 NonCon=     1 RMS=3.52D-05 Max=1.49D-03 NDo=     1
 LinEq1:  Iter=  3 NonCon=     1 RMS=1.60D-05 Max=3.57D-04 NDo=     1
 LinEq1:  Iter=  4 NonCon=     1 RMS=9.72D-06 Max=1.47D-04 NDo=     1
 LinEq1:  Iter=  5 NonCon=     1 RMS=2.38D-06 Max=2.36D-05 NDo=     1
 LinEq1:  Iter=  6 NonCon=     1 RMS=1.08D-06 Max=2.25D-05 NDo=     1
 LinEq1:  Iter=  7 NonCon=     1 RMS=6.85D-07 Max=1.17D-05 NDo=     1
 LinEq1:  Iter=  8 NonCon=     1 RMS=3.60D-07 Max=7.08D-06 NDo=     1
 LinEq1:  Iter=  9 NonCon=     1 RMS=2.04D-07 Max=4.06D-06 NDo=     1
 LinEq1:  Iter= 10 NonCon=     1 RMS=9.27D-08 Max=2.13D-06 NDo=     1
 LinEq1:  Iter= 11 NonCon=     1 RMS=3.24D-08 Max=6.70D-07 NDo=     1
 LinEq1:  Iter= 12 NonCon=     1 RMS=1.40D-08 Max=1.43D-07 NDo=     1
 LinEq1:  Iter= 13 NonCon=     1 RMS=6.51D-09 Max=9.23D-08 NDo=     1
 LinEq1:  Iter= 14 NonCon=     0 RMS=2.06D-09 Max=2.34D-08 NDo=     1
 Linear equations converged to 6.761D-09 6.761D-08 after    14 iterations.
     Minimum is close to point  2 DX=  1.13D-03 DF= -1.88D-11 DXR=  1.13D-03 DFR=  1.28D-06 which will be used.
 LinEq1:  Iter=  0 NonCon=     1 RMS=8.14D-07 Max=1.35D-05 NDo=     1
 LinEq1:  Iter=  1 NonCon=     1 RMS=5.19D-07 Max=6.58D-06 NDo=     1
 LinEq1:  Iter=  2 NonCon=     1 RMS=1.56D-07 Max=3.40D-06 NDo=     1
 LinEq1:  Iter=  3 NonCon=     1 RMS=1.41D-07 Max=5.63D-06 NDo=     1
 LinEq1:  Iter=  4 NonCon=     1 RMS=1.20D-07 Max=5.12D-06 NDo=     1
 LinEq1:  Iter=  5 NonCon=     1 RMS=5.33D-08 Max=1.06D-06 NDo=     1
 LinEq1:  Iter=  6 NonCon=     1 RMS=1.66D-08 Max=2.43D-07 NDo=     1
 LinEq1:  Iter=  7 NonCon=     1 RMS=9.36D-09 Max=1.79D-07 NDo=     1
 LinEq1:  Iter=  8 NonCon=     1 RMS=6.84D-09 Max=1.56D-07 NDo=     1
 LinEq1:  Iter=  9 NonCon=     1 RMS=2.51D-09 Max=5.35D-08 NDo=     1
 LinEq1:  Iter= 10 NonCon=     1 RMS=1.51D-09 Max=3.22D-08 NDo=     1
 LinEq1:  Iter= 11 NonCon=     1 RMS=5.53D-10 Max=9.88D-09 NDo=     1
 LinEq1:  Iter= 12 NonCon=     0 RMS=1.68D-10 Max=1.81D-09 NDo=     1
 Linear equations converged to 7.548D-10 7.548D-09 after    12 iterations.
 SCF Done:  E(UB3LYP) =  -268.977445191     a.u. after    8 cycles
            Convg  =    0.9389D-08                    45 Fock formations.
              S**2 =  0.7532                  -V/T =  2.0033
 <Sx>= 0.0000 <Sy>= 0.0000 <Sz>= 0.5000 <S**2>= 0.7532 S= 0.5016
 <L.S>=  0.00000000000    
 Annihilation of the first spin contaminant:
 S**2 before annihilation     0.7532,   after     0.7500
 DoSCS=F DFT=T ScalE2(SS,OS)=  1.000000  1.000000
 Range of M.O.s used for correlation:     1   132
 NBasis=   132 NAE=    21 NBE=    20 NFC=     0 NFV=     0
 NROrb=    132 NOA=    21 NOB=    20 NVA=   111 NVB=   112
 Symmetrizing basis deriv contribution to polar:
 IMax=3 JMax=2 DiffMx= 0.00D+00
 G2DrvN: will do    13 centers at a time, making    1 passes.
 Calling FoFCou, ICntrl=  3107 FMM=F I1Cent=   0 AccDes= 0.00D+00.
 End of G2Drv F.D. properties file   721 does not exist.
 End of G2Drv F.D. properties file   722 does not exist.
 End of G2Drv F.D. properties file   788 does not exist.
          IDoAtm=111111111111
          Differentiating once with respect to nuclear coordinates.
 Keep R1 and R2 ints in memory in canonical form, NReq=78382142.
          There are    39 degrees of freedom in the 1st order CPHF.  IDoFFX=6 NUNeed=     0.
     33 vectors produced by pass  0 Test12= 1.17D-14 2.56D-09 XBig12= 3.14D-01 3.38D-01.
 AX will form    33 AO Fock derivatives at one time.
     33 vectors produced by pass  1 Test12= 1.17D-14 2.56D-09 XBig12= 8.42D-03 3.83D-02.
     33 vectors produced by pass  2 Test12= 1.17D-14 2.56D-09 XBig12= 8.91D-05 2.20D-03.
     33 vectors produced by pass  3 Test12= 1.17D-14 2.56D-09 XBig12= 1.11D-06 1.84D-04.
     33 vectors produced by pass  4 Test12= 1.17D-14 2.56D-09 XBig12= 4.71D-09 9.53D-06.
     33 vectors produced by pass  5 Test12= 1.17D-14 2.56D-09 XBig12= 1.71D-11 4.40D-07.
     21 vectors produced by pass  6 Test12= 1.17D-14 2.56D-09 XBig12= 7.13D-14 3.86D-08.
 InvSVY:  IOpt=1 It=  1 EMax= 1.33D-15
 Solved reduced A of dimension   219 with    33 vectors.
 End of Minotr F.D. properties file   721 does not exist.
 End of Minotr F.D. properties file   722 does not exist.
 End of Minotr F.D. properties file   788 does not exist.

 **********************************************************************

            Population analysis using the SCF density.

 **********************************************************************

 Orbital symmetries:
 Alpha Orbitals:
       Occupied  (A) (A) (A) (A) (A) (A) (A) (A) (A) (A) (A) (A)
                 (A) (A) (A) (A) (A) (A) (A) (A) (A)
       Virtual   (A) (A) (A) (A) (A) (A) (A) (A) (A) (A) (A) (A)
                 (A) (A) (A) (A) (A) (A) (A) (A) (A) (A) (A) (A)
                 (A) (A) (A) (A) (A) (A) (A) (A) (A) (A) (A) (A)
                 (A) (A) (A) (A) (A) (A) (A) (A) (A) (A) (A) (A)
                 (A) (A) (A) (A) (A) (A) (A) (A) (A) (A) (A) (A)
                 (A) (A) (A) (A) (A) (A) (A) (A) (A) (A) (A) (A)
                 (A) (A) (A) (A) (A) (A) (A) (A) (A) (A) (A) (A)
                 (A) (A) (A) (A) (A) (A) (A) (A) (A) (A) (A) (A)
                 (A) (A) (A) (A) (A) (A) (A) (A) (A) (A) (A) (A)
                 (A) (A) (A)
 Beta  Orbitals:
       Occupied  (A) (A) (A) (A) (A) (A) (A) (A) (A) (A) (A) (A)
                 (A) (A) (A) (A) (A) (A) (A) (A)
       Virtual   (A) (A) (A) (A) (A) (A) (A) (A) (A) (A) (A) (A)
                 (A) (A) (A) (A) (A) (A) (A) (A) (A) (A) (A) (A)
                 (A) (A) (A) (A) (A) (A) (A) (A) (A) (A) (A) (A)
                 (A) (A) (A) (A) (A) (A) (A) (A) (A) (A) (A) (A)
                 (A) (A) (A) (A) (A) (A) (A) (A) (A) (A) (A) (A)
                 (A) (A) (A) (A) (A) (A) (A) (A) (A) (A) (A) (A)
                 (A) (A) (A) (A) (A) (A) (A) (A) (A) (A) (A) (A)
                 (A) (A) (A) (A) (A) (A) (A) (A) (A) (A) (A) (A)
                 (A) (A) (A) (A) (A) (A) (A) (A) (A) (A) (A) (A)
                 (A) (A) (A) (A)
 The electronic state is 2-A.
 Alpha  occ. eigenvalues --  -19.15994 -19.11762 -10.22860 -10.22821 -10.16685
 Alpha  occ. eigenvalues --   -1.03881  -1.01885  -0.77014  -0.69031  -0.59239
 Alpha  occ. eigenvalues --   -0.52670  -0.49059  -0.45797  -0.45288  -0.42425
 Alpha  occ. eigenvalues --   -0.38997  -0.38234  -0.34748  -0.32834  -0.28635
 Alpha  occ. eigenvalues --   -0.27937
 Alpha virt. eigenvalues --    0.02521   0.06241   0.08105   0.08979   0.09560
 Alpha virt. eigenvalues --    0.12296   0.13120   0.15953   0.19926   0.20846
 Alpha virt. eigenvalues --    0.23290   0.29412   0.32785   0.36948   0.38835
 Alpha virt. eigenvalues --    0.41749   0.43990   0.47035   0.48257   0.50314
 Alpha virt. eigenvalues --    0.52101   0.56644   0.56879   0.57632   0.58338
 Alpha virt. eigenvalues --    0.59275   0.62699   0.70656   0.74910   0.79270
 Alpha virt. eigenvalues --    0.83631   0.86492   0.87561   0.92756   0.95405
 Alpha virt. eigenvalues --    0.97942   1.03576   1.12062   1.19981   1.24219
 Alpha virt. eigenvalues --    1.29669   1.35900   1.37356   1.43159   1.45425
 Alpha virt. eigenvalues --    1.47311   1.49005   1.49997   1.52877   1.54542
 Alpha virt. eigenvalues --    1.56737   1.59606   1.62526   1.63837   1.68938
 Alpha virt. eigenvalues --    1.71452   1.72371   1.80422   1.89969   1.91472
 Alpha virt. eigenvalues --    1.94297   1.95529   2.06418   2.08631   2.10636
 Alpha virt. eigenvalues --    2.18819   2.23942   2.26320   2.35842   2.37307
 Alpha virt. eigenvalues --    2.37733   2.41536   2.46563   2.50334   2.53248
 Alpha virt. eigenvalues --    2.55208   2.59482   2.60111   2.64991   2.72482
 Alpha virt. eigenvalues --    2.76464   2.80680   2.85292   2.90507   2.94832
 Alpha virt. eigenvalues --    3.03683   3.10932   3.14206   3.20367   3.26224
 Alpha virt. eigenvalues --    3.28905   3.34516   3.72585   3.78660   3.79002
 Alpha virt. eigenvalues --    3.81018   3.88092   3.90876   4.07805   4.26807
 Alpha virt. eigenvalues --    4.81088   4.88844   4.89887   5.25980   5.43706
 Alpha virt. eigenvalues --    5.63824  23.73291  23.77297  23.91656  49.80392
 Alpha virt. eigenvalues --   49.89827
  Beta  occ. eigenvalues --  -19.13639 -19.11744 -10.22888 -10.22858 -10.16686
  Beta  occ. eigenvalues --   -1.02890  -0.97753  -0.76609  -0.68230  -0.58412
  Beta  occ. eigenvalues --   -0.52165  -0.47988  -0.44817  -0.42465  -0.41233
  Beta  occ. eigenvalues --   -0.38580  -0.38025  -0.34526  -0.28114  -0.26514
  Beta virt. eigenvalues --   -0.13807   0.02595   0.06357   0.08137   0.09262
  Beta virt. eigenvalues --    0.09671   0.12494   0.13183   0.16591   0.20109
  Beta virt. eigenvalues --    0.20976   0.23521   0.29661   0.33000   0.37396
  Beta virt. eigenvalues --    0.38997   0.41997   0.45090   0.47554   0.48611
  Beta virt. eigenvalues --    0.50524   0.52453   0.56685   0.57066   0.57841
  Beta virt. eigenvalues --    0.58426   0.59428   0.62814   0.70745   0.75987
  Beta virt. eigenvalues --    0.81246   0.84691   0.87313   0.87847   0.94598
  Beta virt. eigenvalues --    0.96079   0.98564   1.04185   1.12450   1.20334
  Beta virt. eigenvalues --    1.24306   1.30174   1.36059   1.37680   1.44108
  Beta virt. eigenvalues --    1.45670   1.47343   1.49562   1.50175   1.53088
  Beta virt. eigenvalues --    1.54692   1.57176   1.59980   1.63583   1.64400
  Beta virt. eigenvalues --    1.69293   1.71895   1.72784   1.80607   1.90434
  Beta virt. eigenvalues --    1.91643   1.94548   1.95801   2.06550   2.09238
  Beta virt. eigenvalues --    2.11109   2.19175   2.24222   2.26898   2.36278
  Beta virt. eigenvalues --    2.37814   2.38349   2.41779   2.46771   2.50477
  Beta virt. eigenvalues --    2.53406   2.55493   2.59747   2.60889   2.65486
  Beta virt. eigenvalues --    2.72991   2.79004   2.83675   2.91181   2.92865
  Beta virt. eigenvalues --    2.96322   3.04500   3.11200   3.17286   3.22062
  Beta virt. eigenvalues --    3.27035   3.29464   3.34973   3.73546   3.78727
  Beta virt. eigenvalues --    3.79394   3.81034   3.89366   3.91723   4.07896
  Beta virt. eigenvalues --    4.26911   4.88113   4.91795   4.92382   5.26008
  Beta virt. eigenvalues --    5.45648   5.63869  23.73284  23.77239  23.91653
  Beta virt. eigenvalues --   49.82460  49.90185
          Condensed to atoms (all electrons):
               1          2          3          4          5          6
     1  C    4.946250   0.396216   0.373203   0.394115   0.334268  -0.047983
     2  H    0.396216   0.547316  -0.022640  -0.031394  -0.045585   0.012169
     3  H    0.373203  -0.022640   0.598643  -0.026104  -0.026528   0.000164
     4  H    0.394115  -0.031394  -0.026104   0.594296  -0.029422  -0.009163
     5  C    0.334268  -0.045585  -0.026528  -0.029422   5.064421   0.352535
     6  H   -0.047983   0.012169   0.000164  -0.009163   0.352535   0.671906
     7  C   -0.057029  -0.016007  -0.002381   0.008850   0.302305  -0.040301
     8  H   -0.003080   0.002188   0.001413  -0.000355  -0.052564   0.004761
     9  H    0.010420   0.000952  -0.000664  -0.000490  -0.062301  -0.001095
    10  O   -0.042865   0.007524   0.005105  -0.002543   0.258977  -0.031603
    11  H   -0.004379  -0.002002  -0.000270   0.006109  -0.036684  -0.006043
    12  O   -0.002713   0.020133  -0.000252  -0.000018  -0.071668   0.004933
               7          8          9         10         11         12
     1  C   -0.057029  -0.003080   0.010420  -0.042865  -0.004379  -0.002713
     2  H   -0.016007   0.002188   0.000952   0.007524  -0.002002   0.020133
     3  H   -0.002381   0.001413  -0.000664   0.005105  -0.000270  -0.000252
     4  H    0.008850  -0.000355  -0.000490  -0.002543   0.006109  -0.000018
     5  C    0.302305  -0.052564  -0.062301   0.258977  -0.036684  -0.071668
     6  H   -0.040301   0.004761  -0.001095  -0.031603  -0.006043   0.004933
     7  C    4.811383   0.369414   0.386422  -0.052903   0.008729   0.302841
     8  H    0.369414   0.586268  -0.018153   0.003897  -0.000770  -0.025234
     9  H    0.386422  -0.018153   0.564158   0.005874  -0.000856  -0.025784
    10  O   -0.052903   0.003897   0.005874   7.929759   0.310770   0.001360
    11  H    0.008729  -0.000770  -0.000856   0.310770   0.488536  -0.000462
    12  O    0.302841  -0.025234  -0.025784   0.001360  -0.000462   8.026350
          Atomic-Atomic Spin Densities.
               1          2          3          4          5          6
     1  C    0.006368   0.001224  -0.000385   0.000323  -0.003911   0.000387
     2  H    0.001224  -0.001297   0.000124  -0.000174   0.001417  -0.000241
     3  H   -0.000385   0.000124  -0.000154   0.000040   0.000010  -0.000016
     4  H    0.000323  -0.000174   0.000040  -0.000288  -0.000011  -0.000022
     5  C   -0.003911   0.001417   0.000010  -0.000011  -0.018647   0.003359
     6  H    0.000387  -0.000241  -0.000016  -0.000022   0.003359  -0.003789
     7  C   -0.001855  -0.000254   0.000190  -0.000045   0.021519  -0.000986
     8  H   -0.004867  -0.000173   0.000130  -0.000067   0.004963   0.000240
     9  H    0.001431  -0.000049   0.000001   0.000016   0.005841  -0.000518
    10  O   -0.001426   0.000000  -0.000011  -0.000038  -0.003147   0.000326
    11  H    0.000324   0.000097  -0.000003   0.000096   0.000184   0.000016
    12  O    0.002415  -0.001930   0.000032  -0.000006  -0.004634  -0.000270
               7          8          9         10         11         12
     1  C   -0.001855  -0.004867   0.001431  -0.001426   0.000324   0.002415
     2  H   -0.000254  -0.000173  -0.000049   0.000000   0.000097  -0.001930
     3  H    0.000190   0.000130   0.000001  -0.000011  -0.000003   0.000032
     4  H   -0.000045  -0.000067   0.000016  -0.000038   0.000096  -0.000006
     5  C    0.021519   0.004963   0.005841  -0.003147   0.000184  -0.004634
     6  H   -0.000986   0.000240  -0.000518   0.000326   0.000016  -0.000270
     7  C   -0.082966   0.009803   0.012693   0.000024  -0.000048  -0.029988
     8  H    0.009803   0.127643  -0.021213   0.000625  -0.000017  -0.020918
     9  H    0.012693  -0.021213   0.084826  -0.001805   0.000056  -0.012072
    10  O    0.000024   0.000625  -0.001805   0.011033  -0.000738   0.000563
    11  H   -0.000048  -0.000017   0.000056  -0.000738   0.000086   0.000008
    12  O   -0.029988  -0.020918  -0.012072   0.000563   0.000008   0.963912
 Mulliken charges and spin densities:
               1          2
     1  C   -0.296423   0.000027
     2  H    0.131131  -0.001258
     3  H    0.100311  -0.000041
     4  H    0.096120  -0.000175
     5  C    0.012247   0.006942
     6  H    0.089719  -0.001514
     7  C   -0.021324  -0.071913
     8  H    0.132215   0.096149
     9  H    0.141517   0.069206
    10  O   -0.393351   0.005406
    11  H    0.237322   0.000059
    12  O   -0.229486   0.897112
 Sum of Mulliken charges =   0.00000   1.00000
 Mulliken charges and spin densities with hydrogens summed into heavy atoms:
               1          2
     1  C    0.031140  -0.001448
     5  C    0.101967   0.005428
     7  C    0.252408   0.093442
    10  O   -0.156028   0.005466
    12  O   -0.229486   0.897112
 APT charges:
               1
     1  C   -0.977725
     2  H    0.254219
     3  H    0.339824
     4  H    0.411880
     5  C   -0.244217
     6  H    0.328082
     7  C   -0.689360
     8  H    0.377595
     9  H    0.378159
    10  O   -0.674695
    11  H    0.582803
    12  O   -0.086566
 Sum of APT charges =   0.00000
 APT charges with hydrogens summed into heavy atoms:
               1
     1  C    0.028199
     5  C    0.083865
     7  C    0.066394
    10  O   -0.091892
    12  O   -0.086566
 Electronic spatial extent (au):  <R**2>=            432.1959
 Charge=              0.0000 electrons
 Dipole moment (field-independent basis, Debye):
    X=             -1.8915    Y=              0.5958    Z=              2.0499  Tot=              2.8521
 Quadrupole moment (field-independent basis, Debye-Ang):
   XX=            -29.4087   YY=            -32.2609   ZZ=            -31.0648
   XY=              0.0062   XZ=              3.2261   YZ=              0.0781
 Traceless Quadrupole moment (field-independent basis, Debye-Ang):
   XX=              1.5028   YY=             -1.3494   ZZ=             -0.1534
   XY=              0.0062   XZ=              3.2261   YZ=              0.0781
 Octapole moment (field-independent basis, Debye-Ang**2):
  XXX=            -14.1621  YYY=             -1.9472  ZZZ=             -2.0935  XYY=              2.4329
  XXY=             -7.5292  XXZ=              0.8656  XZZ=              0.6342  YZZ=             -1.4249
  YYZ=              0.0279  XYZ=             -0.1389
 Hexadecapole moment (field-independent basis, Debye-Ang**3):
 XXXX=           -266.7585 YYYY=           -180.1854 ZZZZ=            -88.7268 XXXY=             17.3237
 XXXZ=             11.1412 YYYX=              7.2681 YYYZ=              2.3683 ZZZX=             -0.2802
 ZZZY=              1.7704 XXYY=            -68.6219 XXZZ=            -60.5518 YYZZ=            -43.3127
 XXYZ=              4.5287 YYXZ=              1.3993 ZZXY=              3.3692
 N-N= 1.856016144145D+02 E-N=-1.002016816050D+03  KE= 2.680848900653D+02
  Exact polarizability:   0.000   0.000   0.000   0.000   0.000   0.000
 Approx polarizability:  56.912   1.479  55.389  -1.446   0.073  59.461
                          Isotropic Fermi Contact Couplings
        Atom                 a.u.       MegaHertz       Gauss      10(-4) cm-1
     1  C(13)             -0.00107      -1.19741      -0.42726      -0.39941
     2  H(1)               0.00025       1.09963       0.39238       0.36680
     3  H(1)              -0.00002      -0.10031      -0.03579      -0.03346
     4  H(1)              -0.00008      -0.37621      -0.13424      -0.12549
     5  C(13)             -0.00269      -3.01859      -1.07711      -1.00689
     6  H(1)              -0.00037      -1.67031      -0.59601      -0.55716
     7  C(13)             -0.03339     -37.54220     -13.39599     -12.52273
     8  H(1)               0.04375     195.53673      69.77237      65.22403
     9  H(1)               0.03215     143.68744      51.27125      47.92897
    10  O(17)              0.00116      -0.70378      -0.25113      -0.23476
    11  H(1)              -0.00005      -0.20600      -0.07351      -0.06872
    12  O(17)              0.05362     -32.50321     -11.59795     -10.84190
 --------------------------------------------------------
       Center         ----  Spin Dipole Couplings  ----
                      3XX-RR        3YY-RR        3ZZ-RR
 --------------------------------------------------------
     1   Atom        0.007666     -0.003876     -0.003789
     2   Atom        0.008922     -0.003023     -0.005899
     3   Atom        0.003142     -0.000271     -0.002871
     4   Atom        0.003865     -0.001740     -0.002125
     5   Atom        0.009606     -0.006565     -0.003042
     6   Atom        0.004770     -0.003724     -0.001046
     7   Atom       -0.029798      0.019698      0.010100
     8   Atom       -0.008444     -0.013323      0.021767
     9   Atom       -0.008736      0.006484      0.002252
    10   Atom       -0.007987     -0.017798      0.025786
    11   Atom        0.005383     -0.002683     -0.002700
    12   Atom       -1.703670      2.640268     -0.936598
 --------------------------------------------------------
                        XY            XZ            YZ
 --------------------------------------------------------
     1   Atom       -0.004317     -0.001754      0.000464
     2   Atom       -0.007721      0.004066     -0.001778
     3   Atom       -0.005474     -0.002431      0.001740
     4   Atom       -0.001690     -0.000332      0.000144
     5   Atom        0.000722     -0.007288     -0.001031
     6   Atom        0.001068     -0.005115     -0.000235
     7   Atom        0.018518     -0.030963      0.007663
     8   Atom        0.004021     -0.000478      0.006513
     9   Atom       -0.001692     -0.002702     -0.018632
    10   Atom        0.004247      0.001566     -0.005338
    11   Atom        0.002149      0.000217     -0.000096
    12   Atom        0.608011      0.262361      1.942862
 --------------------------------------------------------


 ---------------------------------------------------------------------------------
              Anisotropic Spin Dipole Couplings in Principal Axis System
 ---------------------------------------------------------------------------------

       Atom             a.u.   MegaHertz   Gauss  10(-4) cm-1        Axes

              Baa    -0.0053    -0.714    -0.255    -0.238  0.3247  0.9419  0.0861
     1 C(13)  Bbb    -0.0040    -0.541    -0.193    -0.180  0.1017 -0.1253  0.9869
              Bcc     0.0094     1.255     0.448     0.419  0.9403 -0.3117 -0.1365
 
              Baa    -0.0071    -3.763    -1.343    -1.255 -0.4278 -0.4826  0.7642
     2 H(1)   Bbb    -0.0067    -3.554    -1.268    -1.185  0.2205  0.7642  0.6061
              Bcc     0.0137     7.317     2.611     2.441  0.8766 -0.4278  0.2205
 
              Baa    -0.0043    -2.294    -0.819    -0.765  0.6042  0.7945  0.0609
     3 H(1)   Bbb    -0.0037    -1.970    -0.703    -0.657  0.1760 -0.2076  0.9622
              Bcc     0.0080     4.264     1.521     1.422  0.7771 -0.5707 -0.2653
 
              Baa    -0.0022    -1.194    -0.426    -0.398  0.2106  0.8539 -0.4759
     4 H(1)   Bbb    -0.0021    -1.130    -0.403    -0.377  0.1747  0.4461  0.8778
              Bcc     0.0044     2.324     0.829     0.775  0.9618 -0.2680 -0.0552
 
              Baa    -0.0071    -0.959    -0.342    -0.320  0.2248  0.7729  0.5933
     5 C(13)  Bbb    -0.0058    -0.785    -0.280    -0.262  0.3545 -0.6321  0.6891
              Bcc     0.0130     1.743     0.622     0.582  0.9076  0.0554 -0.4161
 
              Baa    -0.0043    -2.277    -0.812    -0.759  0.4488 -0.5920  0.6694
     6 H(1)   Bbb    -0.0036    -1.906    -0.680    -0.636  0.2351  0.8010  0.5506
              Bcc     0.0078     4.183     1.492     1.395  0.8621  0.0898 -0.4987
 
              Baa    -0.0522    -7.006    -2.500    -2.337  0.8495 -0.2672  0.4550
     7 C(13)  Bbb     0.0239     3.202     1.143     1.068 -0.0642  0.8036  0.5918
              Bcc     0.0283     3.804     1.357     1.269 -0.5238 -0.5319  0.6654
 
              Baa    -0.0165    -8.813    -3.145    -2.940 -0.4478  0.8805 -0.1554
     8 H(1)   Bbb    -0.0064    -3.426    -1.223    -1.143  0.8941  0.4394 -0.0864
              Bcc     0.0229    12.239     4.367     4.083  0.0078  0.1776  0.9841
 
              Baa    -0.0158    -8.423    -3.005    -2.810  0.4075  0.6040  0.6849
     9 H(1)   Bbb    -0.0073    -3.918    -1.398    -1.307  0.9131 -0.2834 -0.2933
              Bcc     0.0231    12.340     4.403     4.116  0.0170  0.7449 -0.6670
 
              Baa    -0.0201     1.451     0.518     0.484 -0.3435  0.9314  0.1202
    10 O(17)  Bbb    -0.0064     0.464     0.165     0.155  0.9387  0.3446  0.0115
              Bcc     0.0265    -1.915    -0.683    -0.639  0.0307 -0.1168  0.9927
 
              Baa    -0.0033    -1.738    -0.620    -0.580 -0.2394  0.9370  0.2543
    11 H(1)   Bbb    -0.0027    -1.422    -0.508    -0.474  0.0412 -0.2519  0.9669
              Bcc     0.0059     3.161     1.128     1.054  0.9700  0.2420  0.0217
 
              Baa    -1.7919   129.659    46.266    43.250  0.6040 -0.3880  0.6961
    12 O(17)  Bbb    -1.7837   129.067    46.054    43.052  0.7872  0.1541 -0.5972
              Bcc     3.5756  -258.726   -92.320   -86.302  0.1245  0.9087  0.3985
 

 ---------------------------------------------------------------------------------

 Calling FoFJK, ICntrl=    100147 FMM=F ISym2X=0 I1Cent= 0 IOpClX= 1 NMat=1 NMatS=1 NMatT=0.
 ***** Axes restored to original set *****
 -------------------------------------------------------------------
 Center     Atomic                   Forces (Hartrees/Bohr)
 Number     Number              X              Y              Z
 -------------------------------------------------------------------
      1        6          -0.000000273   -0.000001213   -0.000000184
      2        1          -0.000000423    0.000000516    0.000000438
      3        1          -0.000000605   -0.000002021   -0.000000061
      4        1          -0.000000182   -0.000000091    0.000000838
      5        6           0.000002192   -0.000000579   -0.000000713
      6        1          -0.000000742   -0.000000696    0.000000319
      7        6           0.000000105   -0.000000378    0.000000112
      8        1           0.000001189    0.000000296   -0.000000155
      9        1           0.000000278    0.000001639   -0.000000882
     10        8          -0.000002032    0.000001517   -0.000000516
     11        1           0.000000928    0.000000503    0.000000274
     12        8          -0.000000434    0.000000505    0.000000530
 -------------------------------------------------------------------
 Cartesian Forces:  Max     0.000002192 RMS     0.000000883
 FormGI is forming the generalized inverse of G from B-inverse, IUseBI=4.

 GradGradGradGradGradGradGradGradGradGradGradGradGradGradGradGradGradGrad
 Berny optimization.
 Internal  Forces:  Max     0.000002441 RMS     0.000000874
 Search for a local minimum.
 Step number   1 out of a maximum of  100 on scan point     1 out of    25
 All quantities printed in internal units (Hartrees-Bohrs-Radians)
 Mixed Optimization -- En-DIIS/RFO-DIIS
 Second derivative matrix not updated -- analytic derivatives used.
 ITU=  0
     Eigenvalues ---    0.00245   0.00271   0.01537   0.01714   0.04059
     Eigenvalues ---    0.04216   0.04459   0.05407   0.06480   0.11507
     Eigenvalues ---    0.12178   0.12733   0.13117   0.14399   0.15737
     Eigenvalues ---    0.18238   0.19294   0.22785   0.26647   0.28880
     Eigenvalues ---    0.29923   0.30290   0.30476   0.33059   0.33516
     Eigenvalues ---    0.34410   0.36328   0.38736   0.528611000.00000
     Eigenvalues --- 1000.000001000.000001000.000001000.000001000.00000
     Eigenvalues --- 1000.000001000.000001000.000001000.000001000.00000
     Eigenvalues --- 1000.000001000.000001000.000001000.000001000.00000
     Eigenvalues --- 1000.000001000.000001000.000001000.000001000.00000
     Eigenvalues --- 1000.00000
 RFO step:  Lambda= 0.00000000D+00 EMin= 2.44639015D-03
 Linear search not attempted -- first point.
 Iteration  1 RMS(Cart)=  0.00001409 RMS(Int)=  0.00000000
 Iteration  2 RMS(Cart)=  0.00000000 RMS(Int)=  0.00000000
 Iteration  1 RMS(Cart)=  0.00000000 RMS(Int)=  0.00000000
 Variable       Old X    -DE/DX   Delta X   Delta X   Delta X     New X
                                 (Linear)    (Quad)   (Total)
    R1        2.06172  -0.00000   0.00000  -0.00000  -0.00000   2.06172
    R2        2.06793  -0.00000   0.00000  -0.00000  -0.00000   2.06792
    R3        2.06810  -0.00000   0.00000  -0.00000  -0.00000   2.06810
    R4        2.88197  -0.00000   0.00000  -0.00000  -0.00000   2.88196
    R5        2.08250   0.00000   0.00000   0.00000   0.00000   2.08250
    R6        2.89540   0.00000   0.00000  -0.00000  -0.00000   2.89540
    R7        2.70034  -0.00000   0.00000  -0.00000  -0.00000   2.70034
    R8        2.09518   0.00000   0.00000   0.00000   0.00000   2.09518
    R9        2.08881  -0.00000   0.00000  -0.00000  -0.00000   2.08881
   R10        2.57847  -0.00000   0.00000  -0.00000  -0.00000   2.57847
   R11        1.81779  -0.00000   0.00000  -0.00000  -0.00000   1.81778
    A1        1.89781   0.00000   0.00000  -0.00000  -0.00000   1.89781
    A2        1.89997  -0.00000   0.00000   0.00000   0.00000   1.89997
    A3        1.91325   0.00000   0.00000   0.00000   0.00000   1.91325
    A4        1.87784   0.00000   0.00000  -0.00000  -0.00000   1.87784
    A5        1.94239  -0.00000   0.00000  -0.00001  -0.00001   1.94238
    A6        1.93160   0.00000   0.00000   0.00000   0.00000   1.93160
    A7        1.91626   0.00000   0.00000  -0.00000  -0.00000   1.91625
    A8        1.96234  -0.00000   0.00000  -0.00000  -0.00000   1.96234
    A9        1.95094  -0.00000   0.00000  -0.00001  -0.00001   1.95093
   A10        1.87454  -0.00000   0.00000   0.00000   0.00000   1.87454
   A11        1.91704  -0.00000   0.00000  -0.00000  -0.00000   1.91703
   A12        1.83991   0.00000   0.00000   0.00001   0.00001   1.83992
   A13        1.92849   0.00000   0.00000   0.00001   0.00001   1.92849
   A14        1.91451   0.00000   0.00000   0.00001   0.00001   1.91451
   A15        2.02528  -0.00000   0.00000  -0.00000  -0.00000   2.02528
   A16        1.82028  -0.00000   0.00000  -0.00000  -0.00000   1.82028
   A17        1.86079  -0.00000   0.00000  -0.00001  -0.00001   1.86078
   A18        1.90280  -0.00000   0.00000  -0.00000  -0.00000   1.90280
   A19        1.88815  -0.00000   0.00000  -0.00001  -0.00001   1.88814
    D1        3.09035   0.00000   0.00000   0.00000  -0.00000   3.09035
    D2        1.00461   0.00000   0.00000  -0.00000  -0.00000   1.00461
    D3       -1.06084  -0.00000   0.00000  -0.00001  -0.00001  -1.06085
    D4        0.99026   0.00000   0.00000   0.00000   0.00000   0.99026
    D5       -1.09547   0.00000   0.00000  -0.00000  -0.00000  -1.09548
    D6        3.12226  -0.00000   0.00000  -0.00001  -0.00001   3.12225
    D7       -1.09693   0.00000   0.00000   0.00001   0.00001  -1.09692
    D8        3.10052   0.00000   0.00000   0.00000   0.00000   3.10053
    D9        1.03507  -0.00000   0.00000  -0.00001  -0.00001   1.03507
   D10        1.29036   0.00000   0.00000  -0.00001  -0.00001   1.29034
   D11       -2.99547   0.00000   0.00000  -0.00001  -0.00001  -2.99548
   D12       -0.83008   0.00000   0.00000  -0.00001  -0.00001  -0.83008
   D13       -0.81951   0.00000   0.00000  -0.00001  -0.00001  -0.81952
   D14        1.17785   0.00000   0.00000  -0.00001  -0.00001   1.17784
   D15       -2.93994   0.00000   0.00000  -0.00001  -0.00001  -2.93995
   D16       -2.86309  -0.00000   0.00000  -0.00002  -0.00002  -2.86311
   D17       -0.86573  -0.00000   0.00000  -0.00002  -0.00002  -0.86575
   D18        1.29966  -0.00000   0.00000  -0.00001  -0.00001   1.29965
   D19       -0.91408   0.00000   0.00000   0.00003   0.00003  -0.91404
   D20        1.21747  -0.00000   0.00000   0.00002   0.00002   1.21749
   D21       -3.05116   0.00000   0.00000   0.00003   0.00003  -3.05113
         Item               Value     Threshold  Converged?
 Maximum Force            0.000002     0.000015     YES
 RMS     Force            0.000001     0.000010     YES
 Maximum Displacement     0.000067     0.000060     NO 
 RMS     Displacement     0.000014     0.000040     YES
 Predicted change in Energy=-1.039422D-10
 GradGradGradGradGradGradGradGradGradGradGradGradGradGradGradGradGradGrad

                          Input orientation:                          
 ---------------------------------------------------------------------
 Center     Atomic      Atomic             Coordinates (Angstroms)
 Number     Number       Type             X           Y           Z
 ---------------------------------------------------------------------
      1          6           0       -1.001624    1.218479   -0.106672
      2          1           0       -0.583232    1.370866   -1.102686
      3          1           0       -0.707394    2.058140    0.530421
      4          1           0       -2.093731    1.223552   -0.177136
      5          6           0       -0.504844   -0.107334    0.460132
      6          1           0       -0.883318   -0.239558    1.486634
      7          6           0        1.024327   -0.180238    0.522570
      8          1           0        1.409732    0.452159    1.347678
      9          1           0        1.337596   -1.204730    0.794735
     10          8           0       -0.905185   -1.213836   -0.350610
     11          1           0       -1.856226   -1.159437   -0.484292
     12          8           0        1.688855    0.203018   -0.605832
 ---------------------------------------------------------------------
                    Distance matrix (angstroms):
                    1          2          3          4          5
     1  C    0.000000
     2  H    1.091016   0.000000
     3  H    1.094298   1.776175   0.000000
     4  H    1.094390   1.777625   1.766098   0.000000
     5  C    1.525070   2.152584   2.176061   2.168393   0.000000
     6  H    2.162983   3.063999   2.494937   2.524663   1.102013
     7  C    2.541030   2.762539   2.830062   3.490344   1.532181
     8  H    2.918393   3.289409   2.780163   3.897994   2.183202
     9  H    3.486607   3.731418   3.859815   4.314521   2.170443
    10  O    2.446419   2.711080   3.394284   2.717278   1.428959
    11  H    2.554883   2.899199   3.564023   2.414413   1.955784
    12  O    2.918733   2.602521   3.236442   3.941222   2.458641
                    6          7          8          9         10
     6  H    0.000000
     7  C    2.138235   0.000000
     8  H    2.399137   1.108722   0.000000
     9  H    2.518480   1.105349   1.748208   0.000000
    10  O    2.079702   2.356647   3.319422   2.518326   0.000000
    11  H    2.382704   3.204714   4.076744   3.440707   0.961930
    12  O    3.345200   1.364469   1.989016   2.016613   2.966759
                   11         12
    11  H    0.000000
    12  O    3.799823   0.000000
 Stoichiometry    C3H7O2(2)
 Framework group  C1[X(C3H7O2)]
 Deg. of freedom    30
 Full point group                 C1      NOp   1
 Largest Abelian subgroup         C1      NOp   1
 Largest concise Abelian subgroup C1      NOp   1
                         Standard orientation:                         
 ---------------------------------------------------------------------
 Center     Atomic      Atomic             Coordinates (Angstroms)
 Number     Number       Type             X           Y           Z
 ---------------------------------------------------------------------
      1          6           0       -1.001619    1.218485   -0.106672
      2          1           0       -0.583227    1.370870   -1.102686
      3          1           0       -0.707386    2.058145    0.530421
      4          1           0       -2.093726    1.223561   -0.177136
      5          6           0       -0.504843   -0.107329    0.460132
      6          1           0       -0.883318   -0.239553    1.486634
      7          6           0        1.024328   -0.180238    0.522570
      8          1           0        1.409735    0.452157    1.347678
      9          1           0        1.337594   -1.204732    0.794735
     10          8           0       -0.905187   -1.213831   -0.350610
     11          1           0       -1.856228   -1.159428   -0.484292
     12          8           0        1.688857    0.203015   -0.605832
 ---------------------------------------------------------------------
 Rotational constants (GHZ):           6.9178946           4.2107477           3.3036473
 Standard basis: 6-311G(2d,d,p) (5D, 7F)
 There are   137 symmetry adapted cartesian basis functions of A   symmetry.
 There are   132 symmetry adapted basis functions of A   symmetry.
   132 basis functions,   216 primitive gaussians,   137 cartesian basis functions
    21 alpha electrons       20 beta electrons
       nuclear repulsion energy       185.6017324089 Hartrees.
 NAtoms=   12 NActive=   12 NUniq=   12 SFac= 1.00D+00 NAtFMM=   60 NAOKFM=F Big=F
 Integral buffers will be    131072 words long.
 Raffenetti 2 integral format.
 Two-electron integral symmetry is turned on.
 One-electron integrals computed using PRISM.
 NBasis=   132 RedAO= T EigKep=  2.29D-03  NBF=   132
 NBsUse=   132 1.00D-06 EigRej= -1.00D+00 NBFU=   132
 Initial guess from the checkpoint file:  "/rc_scratch/jasm3285/Gau-68798.chk"
 B after Tr=    -0.000000   -0.000000    0.000000
         Rot=    1.000000    0.000000   -0.000000    0.000002 Ang=   0.00 deg.
 Initial guess <Sx>= 0.0000 <Sy>= 0.0000 <Sz>= 0.5000 <S**2>= 0.7532 S= 0.5016
 Keep R1 and R2 ints in memory in canonical form, NReq=78377335.
 LinEq1:  Iter=  0 NonCon=     1 RMS=2.32D-07 Max=2.74D-06 NDo=     1
 AX will form     1 AO Fock derivatives at one time.
 LinEq1:  Iter=  1 NonCon=     1 RMS=2.64D-08 Max=3.36D-07 NDo=     1
 LinEq1:  Iter=  2 NonCon=     1 RMS=1.93D-08 Max=5.38D-07 NDo=     1
 LinEq1:  Iter=  3 NonCon=     1 RMS=1.43D-08 Max=5.73D-07 NDo=     1
 LinEq1:  Iter=  4 NonCon=     1 RMS=1.05D-08 Max=3.57D-07 NDo=     1
 LinEq1:  Iter=  5 NonCon=     1 RMS=7.80D-09 Max=2.10D-07 NDo=     1
 LinEq1:  Iter=  6 NonCon=     1 RMS=2.98D-09 Max=7.82D-08 NDo=     1
 LinEq1:  Iter=  7 NonCon=     1 RMS=1.64D-09 Max=3.82D-08 NDo=     1
 LinEq1:  Iter=  8 NonCon=     1 RMS=1.09D-09 Max=2.89D-08 NDo=     1
 LinEq1:  Iter=  9 NonCon=     1 RMS=4.52D-10 Max=8.02D-09 NDo=     1
 LinEq1:  Iter= 10 NonCon=     1 RMS=2.61D-10 Max=4.74D-09 NDo=     1
 LinEq1:  Iter= 11 NonCon=     0 RMS=9.07D-11 Max=1.39D-09 NDo=     1
 Linear equations converged to 1.982D-10 1.982D-09 after    11 iterations.
 SCF Done:  E(UB3LYP) =  -268.977445191     a.u. after    2 cycles
            Convg  =    0.4513D-08                    13 Fock formations.
              S**2 =  0.7532                  -V/T =  2.0033
 <Sx>= 0.0000 <Sy>= 0.0000 <Sz>= 0.5000 <S**2>= 0.7532 S= 0.5016
 <L.S>=  0.00000000000    
 Annihilation of the first spin contaminant:
 S**2 before annihilation     0.7532,   after     0.7500
 Calling FoFJK, ICntrl=      2127 FMM=F ISym2X=0 I1Cent= 0 IOpClX= 1 NMat=1 NMatS=1 NMatT=0.
 ***** Axes restored to original set *****
 -------------------------------------------------------------------
 Center     Atomic                   Forces (Hartrees/Bohr)
 Number     Number              X              Y              Z
 -------------------------------------------------------------------
      1        6          -0.000000114    0.000000012    0.000000439
      2        1          -0.000000529    0.000000207    0.000000293
      3        1          -0.000000297   -0.000000173    0.000000552
      4        1          -0.000000244   -0.000000245    0.000000537
      5        6           0.000000221   -0.000000047    0.000000008
      6        1           0.000000148   -0.000000526   -0.000000078
      7        6           0.000000120    0.000000152   -0.000000287
      8        1           0.000000122    0.000000008   -0.000000178
      9        1           0.000000350    0.000000140   -0.000000602
     10        8           0.000000185    0.000000022   -0.000000276
     11        1           0.000000155   -0.000000121   -0.000000123
     12        8          -0.000000117    0.000000572   -0.000000284
 -------------------------------------------------------------------
 Cartesian Forces:  Max     0.000000602 RMS     0.000000291

 GradGradGradGradGradGradGradGradGradGradGradGradGradGradGradGradGradGrad
 Berny optimization.
 Using GEDIIS/GDIIS optimizer.
 FormGI is forming the generalized inverse of G from B-inverse, IUseBI=4.
 Internal  Forces:  Max     0.000000113 RMS     0.000000026
 Search for a local minimum.
 Step number   2 out of a maximum of  100 on scan point     1 out of    25
 All quantities printed in internal units (Hartrees-Bohrs-Radians)
 Mixed Optimization -- En-DIIS/RFO-DIIS
 Swapping is turned off.
 Update second derivatives using D2CorX and points    1    2
 DE= -2.43D-10 DEPred=-1.04D-10 R= 2.34D+00
 Trust test= 2.34D+00 RLast= 7.18D-05 DXMaxT set to 3.00D-01
 ITU=  0  0
     Eigenvalues ---    0.00245   0.00271   0.01538   0.01714   0.04059
     Eigenvalues ---    0.04216   0.04459   0.05407   0.06480   0.11508
     Eigenvalues ---    0.12178   0.12733   0.13117   0.14399   0.15737
     Eigenvalues ---    0.18238   0.19295   0.22785   0.26648   0.28880
     Eigenvalues ---    0.29923   0.30289   0.30476   0.33059   0.33516
     Eigenvalues ---    0.34409   0.36328   0.38736   0.528611000.00000
     Eigenvalues --- 1000.000001000.000001000.000001000.000001000.00000
     Eigenvalues --- 1000.000001000.000001000.000001000.000001000.00000
     Eigenvalues --- 1000.000001000.000001000.000001000.000001000.00000
     Eigenvalues --- 1000.000001000.000001000.000001000.000001000.00000
     Eigenvalues --- 1000.00000
 En-DIIS/RFO-DIIS/Sim-DIIS IScMMF=       -3 using points:     2    1
 RFO step:  Lambda=-5.16763475D-17.
 DIIS inversion failure, remove point   2.
 Use linear search instead of GDIIS.
 RFO step:  Lambda= 0.00000000D+00 EMin= 2.44640250D-03
 Quartic linear search produced a step of -0.00003.
 Iteration  1 RMS(Cart)=  0.00000002 RMS(Int)=  0.00000000
 Iteration  1 RMS(Cart)=  0.00000000 RMS(Int)=  0.00000000
 Variable       Old X    -DE/DX   Delta X   Delta X   Delta X     New X
                                 (Linear)    (Quad)   (Total)
    R1        2.06172  -0.00000   0.00000  -0.00000  -0.00000   2.06172
    R2        2.06792  -0.00000   0.00000  -0.00000  -0.00000   2.06792
    R3        2.06810  -0.00000   0.00000  -0.00000  -0.00000   2.06810
    R4        2.88196   0.00000   0.00000   0.00000   0.00000   2.88196
    R5        2.08250   0.00000  -0.00000   0.00000   0.00000   2.08250
    R6        2.89540   0.00000   0.00000  -0.00000  -0.00000   2.89540
    R7        2.70034  -0.00000   0.00000  -0.00000  -0.00000   2.70034
    R8        2.09518  -0.00000  -0.00000  -0.00000  -0.00000   2.09518
    R9        2.08881  -0.00000   0.00000  -0.00000  -0.00000   2.08881
   R10        2.57847   0.00000   0.00000   0.00000   0.00000   2.57847
   R11        1.81778  -0.00000   0.00000  -0.00000  -0.00000   1.81778
    A1        1.89781   0.00000   0.00000  -0.00000  -0.00000   1.89781
    A2        1.89997  -0.00000  -0.00000  -0.00000  -0.00000   1.89997
    A3        1.91325   0.00000  -0.00000   0.00000   0.00000   1.91325
    A4        1.87784  -0.00000   0.00000  -0.00000  -0.00000   1.87784
    A5        1.94238   0.00000   0.00000  -0.00000  -0.00000   1.94238
    A6        1.93160  -0.00000  -0.00000   0.00000   0.00000   1.93160
    A7        1.91625  -0.00000   0.00000  -0.00000  -0.00000   1.91625
    A8        1.96234   0.00000   0.00000   0.00000   0.00000   1.96234
    A9        1.95093  -0.00000   0.00000   0.00000   0.00000   1.95093
   A10        1.87454   0.00000  -0.00000  -0.00000  -0.00000   1.87454
   A11        1.91703  -0.00000   0.00000   0.00000   0.00000   1.91703
   A12        1.83992   0.00000  -0.00000  -0.00000  -0.00000   1.83992
   A13        1.92849   0.00000  -0.00000   0.00000   0.00000   1.92849
   A14        1.91451  -0.00000  -0.00000  -0.00000  -0.00000   1.91451
   A15        2.02528   0.00000   0.00000  -0.00000  -0.00000   2.02528
   A16        1.82028   0.00000   0.00000   0.00000   0.00000   1.82028
   A17        1.86078  -0.00000   0.00000   0.00000   0.00000   1.86078
   A18        1.90280  -0.00000   0.00000  -0.00000  -0.00000   1.90280
   A19        1.88814   0.00000   0.00000   0.00000   0.00000   1.88814
    D1        3.09035   0.00000   0.00000   0.00000   0.00000   3.09035
    D2        1.00461   0.00000   0.00000   0.00000   0.00000   1.00461
    D3       -1.06085   0.00000   0.00000   0.00000   0.00000  -1.06085
    D4        0.99026   0.00000  -0.00000   0.00000   0.00000   0.99026
    D5       -1.09548  -0.00000   0.00000   0.00000   0.00000  -1.09548
    D6        3.12225  -0.00000   0.00000   0.00000   0.00000   3.12225
    D7       -1.09692   0.00000  -0.00000   0.00000   0.00000  -1.09692
    D8        3.10053  -0.00000  -0.00000   0.00000   0.00000   3.10053
    D9        1.03507  -0.00000   0.00000   0.00000   0.00000   1.03507
   D10        1.29034   0.00000   0.00000  -0.00000  -0.00000   1.29034
   D11       -2.99548   0.00000   0.00000  -0.00000  -0.00000  -2.99548
   D12       -0.83008   0.00000   0.00000  -0.00000  -0.00000  -0.83008
   D13       -0.81952  -0.00000   0.00000  -0.00000  -0.00000  -0.81952
   D14        1.17784  -0.00000   0.00000  -0.00000  -0.00000   1.17784
   D15       -2.93995  -0.00000   0.00000  -0.00000  -0.00000  -2.93995
   D16       -2.86311   0.00000   0.00000  -0.00000  -0.00000  -2.86311
   D17       -0.86575   0.00000   0.00000  -0.00000  -0.00000  -0.86575
   D18        1.29965   0.00000   0.00000  -0.00000  -0.00000   1.29965
   D19       -0.91404   0.00000  -0.00000   0.00000   0.00000  -0.91404
   D20        1.21749  -0.00000  -0.00000   0.00000   0.00000   1.21749
   D21       -3.05113   0.00000  -0.00000   0.00000   0.00000  -3.05113
         Item               Value     Threshold  Converged?
 Maximum Force            0.000000     0.000015     YES
 RMS     Force            0.000000     0.000010     YES
 Maximum Displacement     0.000000     0.000060     YES
 RMS     Displacement     0.000000     0.000040     YES
 Predicted change in Energy=-8.100778D-18
 Optimization completed.
    -- Stationary point found.
                           ----------------------------
                           !   Optimized Parameters   !
                           ! (Angstroms and Degrees)  !
 --------------------------                            --------------------------
 ! Name  Definition              Value          Derivative Info.                !
 --------------------------------------------------------------------------------
 ! R1    R(1,2)                  1.091          -DE/DX =    0.0                 !
 ! R2    R(1,3)                  1.0943         -DE/DX =    0.0                 !
 ! R3    R(1,4)                  1.0944         -DE/DX =    0.0                 !
 ! R4    R(1,5)                  1.5251         -DE/DX =    0.0                 !
 ! R5    R(5,6)                  1.102          -DE/DX =    0.0                 !
 ! R6    R(5,7)                  1.5322         -DE/DX =    0.0                 !
 ! R7    R(5,10)                 1.429          -DE/DX =    0.0                 !
 ! R8    R(7,8)                  1.1087         -DE/DX =    0.0                 !
 ! R9    R(7,9)                  1.1053         -DE/DX =    0.0                 !
 ! R10   R(7,12)                 1.3645         -DE/DX =    0.0                 !
 ! R11   R(10,11)                0.9619         -DE/DX =    0.0                 !
 ! A1    A(2,1,3)              108.7364         -DE/DX =    0.0                 !
 ! A2    A(2,1,4)              108.8603         -DE/DX =    0.0                 !
 ! A3    A(2,1,5)              109.6213         -DE/DX =    0.0                 !
 ! A4    A(3,1,4)              107.5924         -DE/DX =    0.0                 !
 ! A5    A(3,1,5)              111.2903         -DE/DX =    0.0                 !
 ! A6    A(4,1,5)              110.6723         -DE/DX =    0.0                 !
 ! A7    A(1,5,6)              109.7933         -DE/DX =    0.0                 !
 ! A8    A(1,5,7)              112.4336         -DE/DX =    0.0                 !
 ! A9    A(1,5,10)             111.78           -DE/DX =    0.0                 !
 ! A10   A(6,5,7)              107.4033         -DE/DX =    0.0                 !
 ! A11   A(6,5,10)             109.838          -DE/DX =    0.0                 !
 ! A12   A(7,5,10)             105.4197         -DE/DX =    0.0                 !
 ! A13   A(5,7,8)              110.4944         -DE/DX =    0.0                 !
 ! A14   A(5,7,9)              109.6936         -DE/DX =    0.0                 !
 ! A15   A(5,7,12)             116.0402         -DE/DX =    0.0                 !
 ! A16   A(8,7,9)              104.2943         -DE/DX =    0.0                 !
 ! A17   A(8,7,12)             106.6149         -DE/DX =    0.0                 !
 ! A18   A(9,7,12)             109.0221         -DE/DX =    0.0                 !
 ! A19   A(5,10,11)            108.1827         -DE/DX =    0.0                 !
 ! D1    D(2,1,5,6)            177.0639         -DE/DX =    0.0                 !
 ! D2    D(2,1,5,7)             57.5598         -DE/DX =    0.0                 !
 ! D3    D(2,1,5,10)           -60.7822         -DE/DX =    0.0                 !
 ! D4    D(3,1,5,6)             56.7379         -DE/DX =    0.0                 !
 ! D5    D(3,1,5,7)            -62.7661         -DE/DX =    0.0                 !
 ! D6    D(3,1,5,10)           178.8918         -DE/DX =    0.0                 !
 ! D7    D(4,1,5,6)            -62.8487         -DE/DX =    0.0                 !
 ! D8    D(4,1,5,7)            177.6472         -DE/DX =    0.0                 !
 ! D9    D(4,1,5,10)            59.3051         -DE/DX =    0.0                 !
 ! D10   D(1,5,7,8)             73.9313         -DE/DX =    0.0                 !
 ! D11   D(1,5,7,9)           -171.6285         -DE/DX =    0.0                 !
 ! D12   D(1,5,7,12)           -47.5604         -DE/DX =    0.0                 !
 ! D13   D(6,5,7,8)            -46.955          -DE/DX =    0.0                 !
 ! D14   D(6,5,7,9)             67.4853         -DE/DX =    0.0                 !
 ! D15   D(6,5,7,12)          -168.4466         -DE/DX =    0.0                 !
 ! D16   D(10,5,7,8)          -164.044          -DE/DX =    0.0                 !
 ! D17   D(10,5,7,9)           -49.6038         -DE/DX =    0.0                 !
 ! D18   D(10,5,7,12)           74.4643         -DE/DX =    0.0                 !
 ! D19   D(1,5,10,11)          -52.3709         -DE/DX =    0.0                 !
 ! D20   D(6,5,10,11)           69.7573         -DE/DX =    0.0                 !
 ! D21   D(7,5,10,11)         -174.8167         -DE/DX =    0.0                 !
 --------------------------------------------------------------------------------
 Iteration  1 RMS(Cart)=  0.01708048 RMS(Int)=  0.02938910
 Iteration  2 RMS(Cart)=  0.00517355 RMS(Int)=  0.02890281
 Iteration  3 RMS(Cart)=  0.00012749 RMS(Int)=  0.02890264
 Iteration  4 RMS(Cart)=  0.00000817 RMS(Int)=  0.02890264
 Iteration  5 RMS(Cart)=  0.00000020 RMS(Int)=  0.02890264
 Iteration  1 RMS(Cart)=  0.01382083 RMS(Int)=  0.01799002
 Iteration  2 RMS(Cart)=  0.00857113 RMS(Int)=  0.01999285
 Iteration  3 RMS(Cart)=  0.00532759 RMS(Int)=  0.02288900
 Iteration  4 RMS(Cart)=  0.00331630 RMS(Int)=  0.02512282
 Iteration  5 RMS(Cart)=  0.00206623 RMS(Int)=  0.02663905
 Iteration  6 RMS(Cart)=  0.00128812 RMS(Int)=  0.02762440
 Iteration  7 RMS(Cart)=  0.00080332 RMS(Int)=  0.02825280
 Iteration  8 RMS(Cart)=  0.00050110 RMS(Int)=  0.02864984
 Iteration  9 RMS(Cart)=  0.00031263 RMS(Int)=  0.02889941
 Iteration 10 RMS(Cart)=  0.00019506 RMS(Int)=  0.02905584
 Iteration 11 RMS(Cart)=  0.00012171 RMS(Int)=  0.02915372
 Iteration 12 RMS(Cart)=  0.00007594 RMS(Int)=  0.02921490
 Iteration 13 RMS(Cart)=  0.00004739 RMS(Int)=  0.02925312
 Iteration 14 RMS(Cart)=  0.00002957 RMS(Int)=  0.02927698
 Iteration 15 RMS(Cart)=  0.00001845 RMS(Int)=  0.02929188
 Iteration 16 RMS(Cart)=  0.00001152 RMS(Int)=  0.02930118
 Iteration 17 RMS(Cart)=  0.00000719 RMS(Int)=  0.02930698
 Iteration 18 RMS(Cart)=  0.00000448 RMS(Int)=  0.02931060
 Iteration 19 RMS(Cart)=  0.00000280 RMS(Int)=  0.02931286
 Iteration 20 RMS(Cart)=  0.00000175 RMS(Int)=  0.02931427
 Iteration 21 RMS(Cart)=  0.00000109 RMS(Int)=  0.02931515
 Iteration 22 RMS(Cart)=  0.00000068 RMS(Int)=  0.02931570
 GradGradGradGradGradGradGradGradGradGradGradGradGradGradGradGradGradGrad

                          Input orientation:                          
 ---------------------------------------------------------------------
 Center     Atomic      Atomic             Coordinates (Angstroms)
 Number     Number       Type             X           Y           Z
 ---------------------------------------------------------------------
      1          6           0       -0.985655    1.229497   -0.097531
      2          1           0       -0.701394    1.314939   -1.148487
      3          1           0       -0.728811    2.107499    0.503307
      4          1           0       -2.077676    1.170769   -0.143930
      5          6           0       -0.471371   -0.088068    0.472915
      6          1           0       -0.947423   -0.254073    1.453426
      7          6           0        1.056047   -0.191037    0.536555
      8          1           0        1.451668    0.418386    1.374065
      9          1           0        1.349376   -1.226229    0.789949
     10          8           0       -0.901234   -1.174579   -0.349740
     11          1           0       -1.848542   -1.086724   -0.492246
     12          8           0        1.729971    0.200701   -0.583340
 ---------------------------------------------------------------------
                    Distance matrix (angstroms):
                    1          2          3          4          5
     1  C    0.000000
     2  H    1.092068   0.000000
     3  H    1.094469   1.832301   0.000000
     4  H    1.094582   1.709992   1.765167   0.000000
     5  C    1.525081   2.156452   2.210817   2.131990   0.000000
     6  H    2.146604   3.048324   2.554905   2.420577   1.102535
     7  C    2.566813   2.862853   2.910342   3.483933   1.532207
     8  H    2.960412   3.435514   2.892371   3.914927   2.183265
     9  H    3.502939   3.797464   3.938879   4.285139   2.170494
    10  O    2.418743   2.622144   3.395506   2.631926   1.429004
    11  H    2.503048   2.741274   3.528170   2.295670   1.955876
    12  O    2.944327   2.733579   3.295799   3.953769   2.458653
                    6          7          8          9         10
     6  H    0.000000
     7  C    2.204205   0.000000
     8  H    2.492817   1.108754   0.000000
     9  H    2.580809   1.105384   1.748260   0.000000
    10  O    2.025061   2.363012   3.323431   2.523253   0.000000
    11  H    2.300209   3.208944   4.079198   3.448212   0.961987
    12  O    3.394654   1.364477   1.989039   2.016657   2.978121
                   11         12
    11  H    0.000000
    12  O    3.804145   0.000000
 Stoichiometry    C3H7O2(2)
 Framework group  C1[X(C3H7O2)]
 Deg. of freedom    30
 Full point group                 C1      NOp   1
 Largest Abelian subgroup         C1      NOp   1
 Largest concise Abelian subgroup C1      NOp   1
                         Standard orientation:                         
 ---------------------------------------------------------------------
 Center     Atomic      Atomic             Coordinates (Angstroms)
 Number     Number       Type             X           Y           Z
 ---------------------------------------------------------------------
      1          6           0       -1.034992    1.195220   -0.091388
      2          1           0       -0.762783    1.292197   -1.144532
      3          1           0       -0.795046    2.077027    0.510862
      4          1           0       -2.125544    1.108812   -0.128005
      5          6           0       -0.481997   -0.111106    0.468597
      6          1           0       -0.944525   -0.293229    1.452712
      7          6           0        1.048076   -0.175292    0.517753
      8          1           0        1.435797    0.440601    1.354225
      9          1           0        1.370051   -1.203684    0.763956
     10          8           0       -0.891642   -1.204864   -0.354772
     11          1           0       -1.842166   -1.140647   -0.488186
     12          8           0        1.701353    0.238112   -0.606579
 ---------------------------------------------------------------------
 Rotational constants (GHZ):           7.0351894           4.1369859           3.2835950
 Standard basis: 6-311G(2d,d,p) (5D, 7F)
 There are   137 symmetry adapted cartesian basis functions of A   symmetry.
 There are   132 symmetry adapted basis functions of A   symmetry.
   132 basis functions,   216 primitive gaussians,   137 cartesian basis functions
    21 alpha electrons       20 beta electrons
       nuclear repulsion energy       185.4261211320 Hartrees.
 NAtoms=   12 NActive=   12 NUniq=   12 SFac= 1.00D+00 NAtFMM=   60 NAOKFM=F Big=F
 Integral buffers will be    131072 words long.
 Raffenetti 2 integral format.
 Two-electron integral symmetry is turned on.
 One-electron integrals computed using PRISM.
 NBasis=   132 RedAO= T EigKep=  2.28D-03  NBF=   132
 NBsUse=   132 1.00D-06 EigRej= -1.00D+00 NBFU=   132
 Initial guess from the checkpoint file:  "/rc_scratch/jasm3285/Gau-68798.chk"
 B after Tr=    -0.000000   -0.000000   -0.000000
         Rot=    0.999941   -0.003653   -0.002605   -0.009875 Ang=  -1.24 deg.
 Initial guess <Sx>= 0.0000 <Sy>= 0.0000 <Sz>= 0.5000 <S**2>= 0.7532 S= 0.5016
 Keep R1 and R2 ints in memory in canonical form, NReq=78377335.
 Gradient too large for Newton-Raphson -- use scaled steepest descent instead.
     Minimum is close to point  4 DX=  1.27D-02 DF= -2.28D-07 DXR=  1.05D-02 DFR=  1.10D-04 which will be used.
 Gradient too large for Newton-Raphson -- use scaled steepest descent instead.
 Gradient too large for Newton-Raphson -- use scaled steepest descent instead.
 Gradient too large for Newton-Raphson -- use scaled steepest descent instead.
     Accept linear search using points  1 and  2.
 Gradient too large for Newton-Raphson -- use scaled steepest descent instead.
     Minimum is close to point  5 DX=  7.39D-02 DF= -5.45D-07 DXR=  3.74D-02 DFR=  1.40D-03 which will be used.
 Gradient too large for Newton-Raphson -- use scaled steepest descent instead.
 Gradient too large for Newton-Raphson -- use scaled steepest descent instead.
     Minimum is close to point  4 DX= -2.63D-02 DF= -2.77D-07 DXR=  9.59D-02 DFR=  9.28D-03 which will be used.
 Gradient too large for Newton-Raphson -- use scaled steepest descent instead.
 Gradient too large for Newton-Raphson -- use scaled steepest descent instead.
 Gradient too large for Newton-Raphson -- use scaled steepest descent instead.
     Accept linear search using points  1 and  2.
 Gradient too large for Newton-Raphson -- use scaled steepest descent instead.
     Minimum is close to point  5 DX=  9.75D-02 DF= -8.33D-08 DXR=  3.48D-02 DFR=  1.22D-03 which will be used.
 Gradient too large for Newton-Raphson -- use scaled steepest descent instead.
 LinEq1:  Iter=  0 NonCon=     1 RMS=1.01D-04 Max=1.57D-03 NDo=     1
 AX will form     1 AO Fock derivatives at one time.
 LinEq1:  Iter=  1 NonCon=     1 RMS=1.85D-05 Max=6.15D-04 NDo=     1
 LinEq1:  Iter=  2 NonCon=     1 RMS=1.99D-05 Max=7.52D-04 NDo=     1
 LinEq1:  Iter=  3 NonCon=     1 RMS=1.20D-05 Max=3.87D-04 NDo=     1
 LinEq1:  Iter=  4 NonCon=     1 RMS=8.00D-06 Max=2.06D-04 NDo=     1
 LinEq1:  Iter=  5 NonCon=     1 RMS=4.03D-06 Max=9.82D-05 NDo=     1
 LinEq1:  Iter=  6 NonCon=     1 RMS=1.98D-06 Max=4.70D-05 NDo=     1
 LinEq1:  Iter=  7 NonCon=     1 RMS=8.00D-07 Max=1.63D-05 NDo=     1
 LinEq1:  Iter=  8 NonCon=     1 RMS=5.42D-07 Max=6.63D-06 NDo=     1
 LinEq1:  Iter=  9 NonCon=     1 RMS=1.81D-07 Max=4.56D-06 NDo=     1
 LinEq1:  Iter= 10 NonCon=     1 RMS=7.83D-08 Max=1.12D-06 NDo=     1
 LinEq1:  Iter= 11 NonCon=     1 RMS=3.51D-08 Max=3.40D-07 NDo=     1
 LinEq1:  Iter= 12 NonCon=     1 RMS=1.03D-08 Max=9.70D-08 NDo=     1
 LinEq1:  Iter= 13 NonCon=     1 RMS=4.73D-09 Max=7.90D-08 NDo=     1
 LinEq1:  Iter= 14 NonCon=     0 RMS=2.25D-09 Max=2.75D-08 NDo=     1
 Linear equations converged to 6.761D-09 6.761D-08 after    14 iterations.
     Accept linear search using points  1 and  2.
     Minimum is close to point  2 DX= -3.82D-05 DF= -5.68D-14 DXR=  3.82D-05 DFR=  1.53D-09 which will be used.
 LinEq1:  Iter=  0 NonCon=     1 RMS=2.40D-07 Max=2.39D-06 NDo=     1
 LinEq1:  Iter=  1 NonCon=     1 RMS=1.59D-07 Max=2.09D-06 NDo=     1
 LinEq1:  Iter=  2 NonCon=     1 RMS=5.18D-08 Max=1.04D-06 NDo=     1
 LinEq1:  Iter=  3 NonCon=     1 RMS=3.99D-08 Max=1.34D-06 NDo=     1
 LinEq1:  Iter=  4 NonCon=     1 RMS=2.71D-08 Max=1.19D-06 NDo=     1
 LinEq1:  Iter=  5 NonCon=     1 RMS=1.53D-08 Max=4.33D-07 NDo=     1
 LinEq1:  Iter=  6 NonCon=     1 RMS=6.24D-09 Max=1.02D-07 NDo=     1
 LinEq1:  Iter=  7 NonCon=     1 RMS=3.53D-09 Max=3.54D-08 NDo=     1
 LinEq1:  Iter=  8 NonCon=     1 RMS=1.87D-09 Max=2.44D-08 NDo=     1
 LinEq1:  Iter=  9 NonCon=     1 RMS=1.30D-09 Max=3.13D-08 NDo=     1
 LinEq1:  Iter= 10 NonCon=     1 RMS=4.43D-10 Max=7.29D-09 NDo=     1
 LinEq1:  Iter= 11 NonCon=     0 RMS=1.47D-10 Max=1.26D-09 NDo=     1
 Linear equations converged to 2.168D-10 2.168D-09 after    11 iterations.
 SCF Done:  E(UB3LYP) =  -268.974207497     a.u. after   15 cycles
            Convg  =    0.6079D-08                    69 Fock formations.
              S**2 =  0.7532                  -V/T =  2.0033
 <Sx>= 0.0000 <Sy>= 0.0000 <Sz>= 0.5000 <S**2>= 0.7532 S= 0.5016
 <L.S>=  0.00000000000    
 Annihilation of the first spin contaminant:
 S**2 before annihilation     0.7532,   after     0.7500
 Calling FoFJK, ICntrl=      2127 FMM=F ISym2X=0 I1Cent= 0 IOpClX= 1 NMat=1 NMatS=1 NMatT=0.
 ***** Axes restored to original set *****
 -------------------------------------------------------------------
 Center     Atomic                   Forces (Hartrees/Bohr)
 Number     Number              X              Y              Z
 -------------------------------------------------------------------
      1        6          -0.009636336   -0.004474130   -0.005580523
      2        1           0.009582961    0.005079171    0.003271850
      3        1           0.003233730   -0.000884313   -0.003835696
      4        1          -0.002712533    0.001921195    0.005230876
      5        6          -0.011485857   -0.001845225   -0.001925030
      6        1           0.011062905    0.004524817    0.005038072
      7        6          -0.001999356    0.000093306    0.003840919
      8        1           0.000044590   -0.000128001    0.000042771
      9        1          -0.000037509    0.000129513    0.000015435
     10        8           0.003210985   -0.004511995   -0.006494860
     11        1           0.000413053   -0.000024245    0.000204963
     12        8          -0.001676633    0.000119907    0.000191223
 -------------------------------------------------------------------
 Cartesian Forces:  Max     0.011485857 RMS     0.004529905

 GradGradGradGradGradGradGradGradGradGradGradGradGradGradGradGradGradGrad
 Berny optimization.
 FormGI is forming the generalized inverse of G from B-inverse, IUseBI=4.
 Internal  Forces:  Max     0.009342013 RMS     0.002812752
 Search for a local minimum.
 Step number   1 out of a maximum of  100 on scan point     2 out of    25
 All quantities printed in internal units (Hartrees-Bohrs-Radians)
 Mixed Optimization -- RFO/linear search
 Second derivative matrix not updated -- first step.
 ITU=  0
     Eigenvalues ---    0.00245   0.00271   0.01538   0.01714   0.04049
     Eigenvalues ---    0.04215   0.04456   0.05408   0.06485   0.11487
     Eigenvalues ---    0.12107   0.12702   0.13115   0.14375   0.15733
     Eigenvalues ---    0.18208   0.19217   0.22776   0.26653   0.28870
     Eigenvalues ---    0.29921   0.30287   0.30474   0.33056   0.33516
     Eigenvalues ---    0.34409   0.36329   0.38736   0.528611000.00000
     Eigenvalues --- 1000.000001000.000001000.000001000.000001000.00000
[...]
  Beta virt. eigenvalues --    3.67873   3.71615   3.74461   3.80189   3.81356
  Beta virt. eigenvalues --    3.84982   3.86167   3.89205   3.91929   3.94978
  Beta virt. eigenvalues --    3.97638   4.03265   4.05549   4.09287   4.11230
  Beta virt. eigenvalues --    4.11609   4.15662   4.18674   4.23718   4.27774
  Beta virt. eigenvalues --    4.32547   4.34520   4.36134   4.40227   4.44134
  Beta virt. eigenvalues --    4.49923   4.52419   4.55575   4.57998   4.59964
  Beta virt. eigenvalues --    4.60349   4.64236   4.66636   4.70796   4.74607
  Beta virt. eigenvalues --    4.76161   4.81437   4.85558   4.88509   4.92766
  Beta virt. eigenvalues --    4.96031   4.97900   5.03350   5.21945   5.47648
  Beta virt. eigenvalues --    5.50528   5.61371   5.64503   5.65013   5.67384
  Beta virt. eigenvalues --    5.70390   5.71272   5.74210   5.76104   5.82382
  Beta virt. eigenvalues --    5.85215   5.88147   5.95449   5.99522   6.02325
  Beta virt. eigenvalues --    6.04807   6.08227   6.12238   6.27495   6.33053
  Beta virt. eigenvalues --    6.44320   6.48713   7.01318   7.17994   7.39628
  Beta virt. eigenvalues --    7.42481   7.54050   7.74909   7.75469   7.78910
  Beta virt. eigenvalues --    7.82975   7.84852   8.09346   8.14607   8.23635
  Beta virt. eigenvalues --   25.39885  25.51570  25.58834  51.67089  51.75687
          Condensed to atoms (all electrons):
               1          2          3          4          5          6
     1  C    4.863297   0.452611   0.401519   0.371785   0.249666  -0.000434
     2  H    0.452611   0.565171  -0.031500  -0.031493  -0.066571   0.000007
     3  H    0.401519  -0.031500   0.626121  -0.033663  -0.017259  -0.003447
     4  H    0.371785  -0.031493  -0.033663   0.658142   0.010454  -0.010588
     5  C    0.249666  -0.066571  -0.017259   0.010454   4.844153   0.423535
     6  H   -0.000434   0.000007  -0.003447  -0.010588   0.423535   0.643885
     7  C    0.026013  -0.008323   0.004609  -0.002874   0.272760  -0.048876
     8  H   -0.006181   0.002821  -0.004679   0.000745  -0.038523  -0.004220
     9  H   -0.003548   0.000379   0.000708  -0.000602  -0.049912  -0.002539
    10  O   -0.069919  -0.002582   0.004879  -0.007870   0.287643  -0.046508
    11  H   -0.024358  -0.002345   0.001419   0.000797   0.020364  -0.000262
    12  O   -0.028436   0.006833  -0.004885   0.001626  -0.048521   0.007886
               7          8          9         10         11         12
     1  C    0.026013  -0.006181  -0.003548  -0.069919  -0.024358  -0.028436
     2  H   -0.008323   0.002821   0.000379  -0.002582  -0.002345   0.006833
     3  H    0.004609  -0.004679   0.000708   0.004879   0.001419  -0.004885
     4  H   -0.002874   0.000745  -0.000602  -0.007870   0.000797   0.001626
     5  C    0.272760  -0.038523  -0.049912   0.287643   0.020364  -0.048521
     6  H   -0.048876  -0.004220  -0.002539  -0.046508  -0.000262   0.007886
     7  C    4.934511   0.435198   0.434456  -0.156672  -0.006094   0.194565
     8  H    0.435198   0.600600  -0.030382   0.012778  -0.001606  -0.049230
     9  H    0.434456  -0.030382   0.592256  -0.007622   0.000963  -0.036277
    10  O   -0.156672   0.012778  -0.007622   8.082494   0.246466   0.011565
    11  H   -0.006094  -0.001606   0.000963   0.246466   0.503089  -0.001727
    12  O    0.194565  -0.049230  -0.036277   0.011565  -0.001727   8.097239
          Atomic-Atomic Spin Densities.
               1          2          3          4          5          6
     1  C    0.014135   0.000307  -0.001605  -0.001050  -0.015283   0.003772
     2  H    0.000307   0.000463   0.000113  -0.000106   0.000027  -0.000219
     3  H   -0.001605   0.000113   0.000723  -0.000102   0.001833  -0.000260
     4  H   -0.001050  -0.000106  -0.000102   0.000498   0.001421  -0.000131
     5  C   -0.015283   0.000027   0.001833   0.001421   0.012395  -0.002832
     6  H    0.003772  -0.000219  -0.000260  -0.000131  -0.002832  -0.002915
     7  C    0.000443   0.000339  -0.000973  -0.000576   0.017226   0.001888
     8  H   -0.015484   0.000194   0.000729   0.000666   0.024287  -0.003195
     9  H    0.008609  -0.000316  -0.000360  -0.000202   0.002978   0.001866
    10  O   -0.003552   0.000156  -0.000007   0.000251  -0.000543  -0.000552
    11  H   -0.000174   0.000067   0.000037  -0.000044  -0.000423   0.000199
    12  O    0.014689  -0.001915  -0.000424  -0.000900  -0.042360  -0.000207
               7          8          9         10         11         12
     1  C    0.000443  -0.015484   0.008609  -0.003552  -0.000174   0.014689
     2  H    0.000339   0.000194  -0.000316   0.000156   0.000067  -0.001915
     3  H   -0.000973   0.000729  -0.000360  -0.000007   0.000037  -0.000424
     4  H   -0.000576   0.000666  -0.000202   0.000251  -0.000044  -0.000900
     5  C    0.017226   0.024287   0.002978  -0.000543  -0.000423  -0.042360
     6  H    0.001888  -0.003195   0.001866  -0.000552   0.000199  -0.000207
     7  C   -0.136187  -0.002016   0.002477  -0.001126   0.000514   0.008844
     8  H   -0.002016   0.120260  -0.030353   0.002322   0.000338  -0.022419
     9  H    0.002477  -0.030353   0.084098  -0.003806  -0.000241  -0.012883
    10  O   -0.001126   0.002322  -0.003806   0.005532  -0.000196   0.002462
    11  H    0.000514   0.000338  -0.000241  -0.000196  -0.000203   0.000482
    12  O    0.008844  -0.022419  -0.012883   0.002462   0.000482   1.035801
 Mulliken charges and spin densities:
               1          2
     1  C   -0.232014   0.004807
     2  H    0.114992  -0.000891
     3  H    0.056178  -0.000296
     4  H    0.043541  -0.000275
     5  C    0.112211  -0.001273
     6  H    0.041563  -0.002588
     7  C   -0.079272  -0.109147
     8  H    0.082679   0.075329
     9  H    0.102119   0.051869
    10  O   -0.354652   0.000940
    11  H    0.263293   0.000356
    12  O   -0.150637   0.981170
 Sum of Mulliken charges =   0.00000   1.00000
 Mulliken charges and spin densities with hydrogens summed into heavy atoms:
               1          2
     1  C   -0.017303   0.003344
     5  C    0.153774  -0.003862
     7  C    0.105526   0.018051
    10  O   -0.091359   0.001296
    12  O   -0.150637   0.981170
 Electronic spatial extent (au):  <R**2>=            432.7590
 Charge=              0.0000 electrons
 Dipole moment (field-independent basis, Debye):
    X=             -1.9377    Y=              0.8933    Z=              2.0951  Tot=              2.9903
 Quadrupole moment (field-independent basis, Debye-Ang):
   XX=            -29.4971   YY=            -32.7016   ZZ=            -31.2937
   XY=             -0.2282   XZ=              2.9873   YZ=             -0.0898
 Traceless Quadrupole moment (field-independent basis, Debye-Ang):
   XX=              1.6670   YY=             -1.5375   ZZ=             -0.1296
   XY=             -0.2282   XZ=              2.9873   YZ=             -0.0898
 Octapole moment (field-independent basis, Debye-Ang**2):
  XXX=            -15.5085  YYY=              0.0293  ZZZ=             -1.3174  XYY=              2.7428
  XXY=             -7.1943  XXZ=              1.0804  XZZ=              0.1514  YZZ=             -1.0836
  YYZ=              0.2482  XYZ=              0.0166
 Hexadecapole moment (field-independent basis, Debye-Ang**3):
 XXXX=           -267.7379 YYYY=           -182.2989 ZZZZ=            -88.9357 XXXY=             16.5541
 XXXZ=             12.0224 YYYX=              5.4799 YYYZ=              1.8820 ZZZX=             -0.7213
 ZZZY=              0.8910 XXYY=            -68.9508 XXZZ=            -61.0405 YYZZ=            -43.5313
 XXYZ=              4.6036 YYXZ=              1.4231 ZZXY=              2.9753
 N-N= 1.856017346044D+02 E-N=-1.000477936698D+03  KE= 2.672094934072D+02
 1\1\GINC-BNODE0305\SP\UMP2-FC\CBSB3\C3H7O2(2)\JASM3285\12-Feb-2018\0\\
 #N Geom=AllCheck Guess=TCheck SCRF=Check MP2/CBSB3 CBSExtrap=(NMin=10,
 MinPop)\\Title Card Required\\0,2\C,0,-1.0566167968,1.1334934806,-0.21
 98053044\H,0,-0.2703540455,1.8276905209,-0.5201347949\H,0,-1.577513683
 2,1.5469967076,0.6491998422\H,0,-1.7843950251,1.0500395845,-1.03286335
 95\C,0,-0.4449203194,-0.2271335206,0.0969896402\H,0,-1.2292145996,-0.9
 15552972,0.4510986756\C,0,0.6233875513,-0.1471782923,1.1923902417\H,0,
 0.1516913612,0.0034898218,2.1843914287\H,0,1.1398429389,-1.120451606,1
 .2807658103\O,0,0.2164806223,-0.7884559937,-1.038523339\H,0,-0.3985673
 973,-0.7811950525,-1.7780997357\O,0,1.5551343931,0.8393383218,1.049532
 8949\\Version=ES64L-G16RevA.03\State=2-A\HF=-267.4448247\MP2=-268.3804
 527\E2(CBS)=-1.0316741\CBS-Int=-1.0010091\OIii=8.2800599\PUHF=-267.448
 7933\PMP2-0=-268.3828749\S2=0.759983\S2-1=0.752167\S2A=0.750078\RMSD=3
 .277e-09\PG=C01 [X(C3H7O2)]\\@


 ERWIN WITH HIS PSI CAN DO
 CALCULATIONS QUITE A FEW.
 BUT ONE THING HAS NOT BEEN SEEN
 JUST WHAT DOES PSI REALLY MEAN.
 -- WALTER HUCKEL, TRANS. BY FELIX BLOCH
 Diagonal vibrational polarizability:
        0.0000000       0.0000000       0.0000000

 Complete Basis Set (CBS) Extrapolation:
 M. R. Nyden and G. A. Petersson, JCP 75, 1843 (1981)
 G. A. Petersson and M. A. Al-Laham, JCP 94, 6081 (1991)
 G. A. Petersson, T. Tensfeldt, and J. A. Montgomery, JCP 94, 6091 (1991)
 J. A. Montgomery, J. W. Ochterski, and G. A. Petersson, JCP 101, 5900 (1994)

 Temperature=               298.150000 Pressure=                       1.000000
 E(ZPE)=                      0.097109 E(Thermal)=                     0.103401
 E(SCF)=                   -267.444825 DE(MP2)=                       -0.935628
 DE(CBS)=                    -0.096046 DE(MP34)=                      -0.053736
 DE(CCSD)=                   -0.023490 DE(Int)=                        0.030665
 DE(Empirical)=              -0.048037
 CBS-QB3 (0 K)=            -268.473988 CBS-QB3 Energy=              -268.467696
 CBS-QB3 Enthalpy=         -268.466752 CBS-QB3 Free Energy=         -268.503775
 1\1\GINC-BNODE0305\Mixed\CBS-QB3\CBS-QB3\C3H7O2(2)\JASM3285\12-Feb-201
 8\0\\# opt=(calcfc,tight,modredundant,noeigentest) freq cbs-qb3 scf=qc
  geom=connectivity ccsd=maxcyc=1000 optcyc=100\\Title Card Required\\0
 ,2\C,0,-1.0566167968,1.1334934806,-0.2198053044\H,0,-0.2703540455,1.82
 76905209,-0.5201347949\H,0,-1.5775136832,1.5469967076,0.6491998422\H,0
 ,-1.7843950251,1.0500395845,-1.0328633595\C,0,-0.4449203194,-0.2271335
 206,0.0969896402\H,0,-1.2292145996,-0.915552972,0.4510986756\C,0,0.623
 3875513,-0.1471782923,1.1923902417\H,0,0.1516913612,0.0034898218,2.184
 3914287\H,0,1.1398429389,-1.120451606,1.2807658103\O,0,0.2164806223,-0
 .7884559937,-1.038523339\H,0,-0.3985673973,-0.7811950525,-1.7780997357
 \O,0,1.5551343931,0.8393383218,1.0495328949\\Version=ES64L-G16RevA.03\
 State=2-A\HF/CbsB3=-267.4448247\E2(CBS)/CbsB3=-1.0316741\CBS-Int/CbsB3
 =0.030665\OIii/CbsB3=8.2800599\MP2/CbsB4=-268.1443352\MP4(SDQ)/CbsB4=-
 268.1980714\MP4(SDQ)/6-31+G(d')=-268.1333078\QCISD(T)/6-31+G(d')=-268.
 1567983\CBSQB3=-268.4739883\FreqCoord=-1.9967163646,2.1419922422,-0.41
 53718261,-0.5108951027,3.4538345249,-0.9829123103,-2.9810688191,2.9234
 000929,1.2268099018,-3.3720178956,1.9842872347,-1.9518288735,-0.840777
 5509,-0.4292201477,0.1832838568,-2.3228789415,-1.7301443697,0.85245295
 2,1.1780317414,-0.2781266639,2.2532909903,0.2866551282,0.0065948075,4.
 1279015492,2.1539909796,-2.1173466712,2.4202966112,0.4090890875,-1.489
 9658893,-1.9625246847,-0.753183223,-1.4762446992,-3.3601215226,2.93877
 80899,1.5861195541,1.9833297302\PG=C01 [X(C3H7O2)]\NImag=0\\0.55859798
 ,0.03789917,0.48283978,-0.01076595,0.01855874,0.56635843,-0.18826663,-
 0.12361392,0.05435892,0.20187444,-0.12107571,-0.15218473,0.04470021,0.
 13325372,0.16739486,0.05241791,0.04546754,-0.06769545,-0.05787130,-0.0
 5188945,0.06945169,-0.10438903,0.04613585,0.09739075,-0.00988053,0.010
 05082,0.01788326,0.11036353,0.04565893,-0.08373009,-0.07462744,-0.0084
 1183,0.00906220,0.01713296,-0.05249465,0.08786915,0.09836395,-0.076189
 91,-0.21195477,0.00260708,-0.00296727,-0.00665857,-0.10796422,0.084379
 93,0.22915268,-0.16034151,-0.01567892,-0.12666391,-0.01431268,-0.00090
 299,-0.01771066,0.01107660,0.00074785,0.01172765,0.17210233,-0.0158893
 3,-0.04872194,-0.01817373,-0.01172421,-0.00174979,-0.01641859,-0.00886
 119,-0.00174421,-0.00850218,0.01446934,0.05248340,-0.12713819,-0.01675
 552,-0.18864170,0.00616150,0.00007271,0.00747495,-0.01728479,-0.001873
 42,-0.01880800,0.14101679,0.01810906,0.20374476,-0.09268142,0.02829503
 ,-0.01786388,0.01100330,-0.02292587,0.00704205,-0.00684539,0.01108289,
 -0.00336916,-0.00921941,0.02310808,-0.00416502,0.51962663,0.02894545,-
 0.16532019,0.03489746,0.00936758,-0.02246737,0.00484020,0.00055176,-0.
 00573291,0.00203114,-0.00201156,0.00155144,-0.00200117,0.05748898,0.50
 992959,-0.00979225,0.02460715,-0.08607019,-0.00265200,0.01165668,-0.00
 398635,0.01049464,-0.02594798,0.00519702,-0.00969804,0.02480521,-0.007
 77130,0.00103183,-0.04240136,0.48388316,0.01046557,0.01027283,-0.00514
 297,-0.00068299,0.00331500,-0.00107273,0.00044202,-0.00124902,0.000232
 28,0.00062147,-0.00073747,0.00035752,-0.16544443,-0.10666717,0.0409050
 6,0.18461461,-0.02100588,-0.02047240,0.00815385,0.00304589,-0.00480607
 ,0.00144956,0.00012154,0.00045870,-0.00063462,0.00038767,0.00142697,0.
 00034700,-0.10764148,-0.14909266,0.04333876,0.11283192,0.16045213,0.00
 509045,0.00726853,-0.00038342,-0.00085587,0.00129007,0.00049328,-0.000
 38183,0.00045354,0.00043868,0.00065438,-0.00045978,-0.00001789,0.03899
 082,0.04540294,-0.06777834,-0.05626883,-0.04563516,0.08324504,-0.01417
 870,0.00670381,-0.01087731,0.00134167,-0.00199061,-0.00016007,0.000051
 83,-0.00066715,-0.00025753,0.00019439,0.00150153,0.00060139,-0.1005688
 6,-0.01136883,-0.06210915,-0.01312697,-0.00007463,-0.01330256,0.422610
 11,0.02299164,0.00355327,0.02156717,-0.00249280,0.00000552,0.00213154,
 0.00048376,0.00085904,-0.00046449,0.00191736,-0.00680458,0.00172142,-0
 .00527479,-0.06653772,0.01669837,-0.01559884,-0.00176208,-0.01614047,0
 .00905769,0.42717614,-0.00907345,0.00660532,-0.00719905,-0.00135470,-0
 .00112507,0.00124301,0.00117226,-0.00035747,-0.00024210,-0.00013161,-0
 .00094446,0.00116689,-0.05265007,0.01377705,-0.12247085,0.00785140,0.0
 0165570,0.00778049,0.03263416,-0.00461628,0.46885050,0.00015135,-0.000
 33059,0.00077160,0.00011431,0.00016099,-0.00023574,-0.00023159,0.00033
 141,-0.00016384,0.00010968,-0.00006889,0.00018827,0.01080936,-0.002665
 02,-0.01736518,0.00077138,-0.00028350,0.00072001,-0.08360163,0.0203295
 4,0.08584818,0.09578067,-0.00031000,0.00023786,0.00134630,0.00051218,-
 0.00010249,-0.00054303,0.00000064,-0.00004585,0.00012693,0.00015645,0.
 00001276,-0.00006676,0.00799680,-0.00594727,-0.00129638,-0.00037555,-0
 .00007036,-0.00015726,-0.00182622,-0.01523299,-0.02322306,-0.01094216,
 0.04042991,0.00053853,-0.00066807,0.00039164,0.00001745,0.00011413,-0.
 00010508,-0.00058562,0.00054988,0.00020681,-0.00012781,0.00022133,0.00
 018541,0.01291024,-0.00388425,-0.01665188,-0.00030143,-0.00040691,0.00
 082717,0.06964877,-0.04669982,-0.22148058,-0.09646357,0.03431760,0.248
 26440,-0.00252140,-0.00193173,-0.00466565,-0.00049822,0.00005105,0.000
 33391,0.00035311,-0.00040054,0.00014148,-0.00055661,0.00130063,-0.0006
 7039,-0.01513021,0.02598708,0.00173656,0.00009610,-0.00034886,0.000348
 04,-0.08993638,0.07867391,-0.02369454,-0.00415968,0.01958492,-0.000186
 69,0.10571968,0.00009843,0.00102734,-0.00088268,-0.00043330,0.00000972
 ,0.00005758,0.00005841,-0.00002381,-0.00005581,-0.00020336,-0.00004449
 ,-0.00000038,-0.00048685,0.00233768,-0.00069331,0.00061208,0.00031854,
 0.00053160,0.11392182,-0.21424291,0.00832084,0.00516401,-0.00186363,-0
 .00023924,-0.10570299,0.24867947,-0.00277407,-0.00177527,-0.00334387,0
 .00022497,0.00008636,-0.00013681,-0.00009068,-0.00006537,0.00020153,-0
 .00056211,0.00149001,-0.00024069,-0.01217772,0.01996306,-0.00283349,0.
 00063074,-0.00037012,0.00059781,-0.02254426,0.00810186,-0.03655765,0.0
 1286615,-0.02372082,-0.00060639,0.01444522,-0.01517633,0.04295336,-0.0
 1053698,0.01330525,0.02162235,0.00113312,0.00019228,-0.00100939,-0.000
 43522,0.00480977,-0.00139864,0.00099628,-0.00231039,0.00116848,-0.1185
 3578,0.02130487,0.02037996,-0.01278710,0.01432346,0.03039615,0.0057887
 9,-0.00360100,-0.01705780,-0.00302907,-0.00262324,-0.00418158,0.003107
 80,0.00002910,0.00057501,0.37367282,0.02310661,-0.01622563,-0.03666970
 ,-0.00115162,0.00393619,-0.00062940,0.00445828,-0.00751921,0.00127151,
 -0.00092141,0.00252970,0.00013640,0.03452748,-0.08391589,-0.02781683,-
 0.00136968,0.01256357,0.00758642,0.00040658,-0.00003634,-0.00849005,-0
 .00029816,-0.00008927,0.00017679,-0.00062742,0.00056490,0.00045168,-0.
 07070578,0.09805232,0.00349690,-0.00790969,-0.00606414,-0.00080094,-0.
 00103408,0.00062585,0.00019663,-0.00061081,0.00206642,0.00101882,0.001
 46968,0.00225585,0.06545168,-0.04906631,-0.16093083,0.01767003,-0.0083
 3713,-0.02284355,0.00930697,-0.01423256,-0.03986703,-0.00425435,-0.002
 17413,-0.00482131,0.00285650,0.00059424,0.00152695,0.16571648,0.075006
 64,0.53398344,0.00147724,0.00013004,0.00197945,-0.00025733,-0.00023875
 ,-0.00034534,-0.00037334,0.00022797,-0.00007501,-0.00064936,0.00005238
 ,-0.00057386,0.00914451,0.00337263,0.02198884,0.00013855,-0.00001581,0
 .00108193,0.00041125,0.00013996,0.00112629,0.00050458,0.00025631,0.000
 42553,-0.00017590,-0.00047482,0.00043268,-0.24509038,0.01143064,-0.262
 57806,0.23505252,-0.00200287,0.00069170,-0.00118334,-0.00025365,-0.000
 46367,-0.00019833,0.00003428,0.00039041,0.00075177,0.00124058,-0.00018
 520,0.00039849,-0.01153347,-0.00176548,-0.01523312,0.00066867,0.000388
 82,0.00083398,0.00295771,-0.00127154,-0.00301411,-0.00064938,0.0005694
 0,-0.00087660,-0.00015026,-0.00003105,-0.00019868,0.02573910,-0.010249
 16,0.00626367,-0.01557876,0.01185738,-0.00056270,0.00042304,0.00334237
 ,0.00024531,-0.00002572,-0.00005052,-0.00015975,0.00112846,0.00014789,
 0.00044508,-0.00118254,0.00041487,-0.02374585,-0.00009674,-0.02940353,
 -0.00063920,0.00095015,0.00092507,0.00357164,-0.00105369,-0.00447615,-
 0.00135816,-0.00097020,-0.00106894,0.00061199,0.00017397,0.00015438,-0
 .21549132,-0.01093690,-0.30745720,0.23612844,0.01165882,0.33733887,0.0
 0222352,-0.00118681,-0.00014341,-0.00156844,0.00011005,0.00072809,-0.0
 0013198,0.00036436,0.00015597,-0.00002118,-0.00084050,0.00033830,-0.04
 215830,-0.02430577,0.00507972,-0.00510821,-0.00134032,-0.00647268,-0.1
 2898549,-0.10662643,-0.02467015,-0.01721935,-0.01243012,0.01830617,0.0
 0370170,-0.01258252,0.00897408,0.00571572,0.00114448,0.00191932,-0.000
 18235,-0.00047194,0.00095452,0.18373436,0.00158356,-0.00169497,0.00231
 318,0.00190195,0.00136562,-0.00140056,-0.00053950,0.00015657,0.0002529
 9,0.00079898,0.00124592,-0.00008783,-0.01463680,-0.01303923,-0.0077172
 0,-0.00170277,0.00059483,-0.00097440,-0.11862168,-0.12570583,0.0114115
 9,-0.01074826,-0.01789807,0.01739515,-0.01643579,-0.03673176,0.0112136
 1,-0.00046341,0.00038882,0.00003048,0.00069821,0.00006838,-0.00006864,
 0.15816552,0.19124975,0.00019887,0.00036815,0.00126015,-0.00008042,-0.
 00087857,-0.00065599,-0.00067068,-0.00016226,0.00025242,0.00003142,-0.
 00041401,0.00023683,-0.01145491,-0.02346202,0.00881658,-0.00422189,-0.
 00051108,-0.00328433,-0.00651204,0.03298696,-0.04674748,0.01944662,0.0
 1636082,-0.00514125,0.00874357,0.00736951,-0.00171511,-0.00071972,-0.0
 0008656,0.00152555,0.00040911,0.00079744,0.00013291,-0.00516994,-0.032
 36839,0.04531973\\0.00000037,0.00000027,-0.00000028,0.00000061,0.,0.00
 000010,0.00000041,0.00000042,-0.00000007,0.00000034,0.00000056,-0.0000
 0013,-0.00000019,0.,-0.00000014,-0.00000038,0.00000039,0.00000019,-0.0
 0000031,-0.00000017,-0.00000006,-0.00000015,-0.00000020,0.00000004,-0.
 00000046,-0.00000044,0.00000008,-0.00000029,-0.00000040,0.00000015,-0.
 00000019,0.00000020,-0.00000003,0.00000024,-0.00000064,0.00000014\\\@
 Job cpu time:       0 days  0 hours  4 minutes 27.4 seconds.
 Elapsed time:       0 days  0 hours  4 minutes 32.4 seconds.
 File lengths (MBytes):  RWF=   2667 Int=      0 D2E=      0 Chk=      8 Scr=      2
 Normal termination of Gaussian 16 at Mon Feb 12 22:15:35 2018.
