 Entering Gaussian System, Link 0=g16
 Input=oxy_rotor.com
 Output=oxy_rotor.log
 Initial command:
 /projects/jasm3285/g16/l1.exe "/rc_scratch/jasm3285/Gau-68650.inp" -scrdir="/rc_scratch/jasm3285/"
 Entering Link 1 = /projects/jasm3285/g16/l1.exe PID=     68651.
  
 Copyright (c) 1988,1990,1992,1993,1995,1998,2003,2009,2016,
            Gaussian, Inc.  All Rights Reserved.
  
 This is part of the Gaussian(R) 16 program.  It is based on
 the Gaussian(R) 09 system (copyright 2009, Gaussian, Inc.),
 the Gaussian(R) 03 system (copyright 2003, Gaussian, Inc.),
 the Gaussian(R) 98 system (copyright 1998, Gaussian, Inc.),
 the Gaussian(R) 94 system (copyright 1995, Gaussian, Inc.),
 the Gaussian 92(TM) system (copyright 1992, Gaussian, Inc.),
 the Gaussian 90(TM) system (copyright 1990, Gaussian, Inc.),
 the Gaussian 88(TM) system (copyright 1988, Gaussian, Inc.),
 the Gaussian 86(TM) system (copyright 1986, Carnegie Mellon
 University), and the Gaussian 82(TM) system (copyright 1983,
 Carnegie Mellon University). Gaussian is a federally registered
 trademark of Gaussian, Inc.
  
 This software contains proprietary and confidential information,
 including trade secrets, belonging to Gaussian, Inc.
  
 This software is provided under written license and may be
 used, copied, transmitted, or stored only in accord with that
 written license.
  
 The following legend is applicable only to US Government
 contracts under FAR:
  
                    RESTRICTED RIGHTS LEGEND
  
 Use, reproduction and disclosure by the US Government is
 subject to restrictions as set forth in subparagraphs (a)
 and (c) of the Commercial Computer Software - Restricted
 Rights clause in FAR 52.227-19.
  
 Gaussian, Inc.
 340 Quinnipiac St., Bldg. 40, Wallingford CT 06492
  
  
 ---------------------------------------------------------------
 Warning -- This program may not be used in any manner that
 competes with the business of Gaussian, Inc. or will provide
 assistance to any competitor of Gaussian, Inc.  The licensee
 of this program is prohibited from giving any competitor of
 Gaussian, Inc. access to this program.  By using this program,
 the user acknowledges that Gaussian, Inc. is engaged in the
 business of creating and licensing software in the field of
 computational chemistry and represents and warrants to the
 licensee that it is not a competitor of Gaussian, Inc. and that
 it will not use this program in any manner prohibited above.
 ---------------------------------------------------------------
  

 Cite this work as:
 Gaussian 16, Revision A.03,
 M. J. Frisch, G. W. Trucks, H. B. Schlegel, G. E. Scuseria, 
 M. A. Robb, J. R. Cheeseman, G. Scalmani, V. Barone, 
 G. A. Petersson, H. Nakatsuji, X. Li, M. Caricato, A. V. Marenich, 
 J. Bloino, B. G. Janesko, R. Gomperts, B. Mennucci, H. P. Hratchian, 
 J. V. Ortiz, A. F. Izmaylov, J. L. Sonnenberg, D. Williams-Young, 
 F. Ding, F. Lipparini, F. Egidi, J. Goings, B. Peng, A. Petrone, 
 T. Henderson, D. Ranasinghe, V. G. Zakrzewski, J. Gao, N. Rega, 
 G. Zheng, W. Liang, M. Hada, M. Ehara, K. Toyota, R. Fukuda, 
 J. Hasegawa, M. Ishida, T. Nakajima, Y. Honda, O. Kitao, H. Nakai, 
 T. Vreven, K. Throssell, J. A. Montgomery, Jr., J. E. Peralta, 
 F. Ogliaro, M. J. Bearpark, J. J. Heyd, E. N. Brothers, K. N. Kudin, 
 V. N. Staroverov, T. A. Keith, R. Kobayashi, J. Normand, 
 K. Raghavachari, A. P. Rendell, J. C. Burant, S. S. Iyengar, 
 J. Tomasi, M. Cossi, J. M. Millam, M. Klene, C. Adamo, R. Cammi, 
 J. W. Ochterski, R. L. Martin, K. Morokuma, O. Farkas, 
 J. B. Foresman, and D. J. Fox, Gaussian, Inc., Wallingford CT, 2016.
 
 ******************************************
 Gaussian 16:  ES64L-G16RevA.03 25-Dec-2016
                12-Feb-2018 
 ******************************************
 ----------------------------------------------------------------------
 # opt=(modredundant,noeigentest) cbs-qb3 scf=qc geom=connectivity ccsd
 =maxcyc=1000 optcyc=100
 ----------------------------------------------------------------------
 1/6=100,11=1,18=120,19=15,26=3,38=1,57=2/1,3;
 2/9=110,12=2,17=6,18=5,40=1/2;
 3/5=4,6=6,7=700,11=2,25=1,30=1,71=1,74=-5/1,2,3;
 4//1;
 5/5=2,8=3,38=5/8;
 6/7=2,8=2,9=2,10=2,28=1/1;
 7//1,2,3,16;
 1/6=100,11=1,18=20,19=15,26=3/3(2);
 2/9=110/2;
 99//99;
 2/9=110/2;
 3/5=4,6=6,7=700,11=2,25=1,30=1,71=1,74=-5/1,2,3;
 4/5=5,16=3,69=1/1;
 5/5=2,8=3,38=5/8;
 7//1,2,3,16;
 1/6=100,11=1,18=20,19=15,26=3/3(-5);
 2/9=110/2;
 6/7=2,8=2,9=2,10=2,19=2,28=1/1;
 99/9=1/99;
 -------------------
 Title Card Required
 -------------------
 Symbolic Z-matrix:
 Charge =  0 Multiplicity = 2
 C                    -1.00162   1.21849  -0.10667 
 H                    -0.58323   1.37087  -1.10269 
 H                    -0.70739   2.05816   0.53042 
 H                    -2.09373   1.22356  -0.17714 
 C                    -0.50485  -0.10733   0.46013 
 H                    -0.88332  -0.23955   1.48663 
 C                     1.02432  -0.18024   0.52257 
 H                     1.40973   0.45215   1.34769 
 H                     1.33758  -1.20474   0.79472 
 O                    -0.90517  -1.21384  -0.35061 
 H                    -1.85622  -1.15947  -0.48428 
 O                     1.68886   0.20302  -0.60583 
 
 The following ModRedundant input section has been read:
 D      10       5       7      12 S  24 15.000                                
 

 GradGradGradGradGradGradGradGradGradGradGradGradGradGradGradGradGradGrad
 Berny optimization.
 Initialization pass.
                           ----------------------------
                           !    Initial Parameters    !
                           ! (Angstroms and Degrees)  !
 --------------------------                            --------------------------
 ! Name  Definition              Value          Derivative Info.                !
 --------------------------------------------------------------------------------
 ! R1    R(1,2)                  1.091          estimate D2E/DX2                !
 ! R2    R(1,3)                  1.0943         estimate D2E/DX2                !
 ! R3    R(1,4)                  1.0944         estimate D2E/DX2                !
 ! R4    R(1,5)                  1.5251         estimate D2E/DX2                !
 ! R5    R(5,6)                  1.102          estimate D2E/DX2                !
 ! R6    R(5,7)                  1.5322         estimate D2E/DX2                !
 ! R7    R(5,10)                 1.429          estimate D2E/DX2                !
 ! R8    R(7,8)                  1.1087         estimate D2E/DX2                !
 ! R9    R(7,9)                  1.1054         estimate D2E/DX2                !
 ! R10   R(7,12)                 1.3645         estimate D2E/DX2                !
 ! R11   R(10,11)                0.9619         estimate D2E/DX2                !
 ! A1    A(2,1,3)              108.7364         estimate D2E/DX2                !
 ! A2    A(2,1,4)              108.86           estimate D2E/DX2                !
 ! A3    A(2,1,5)              109.621          estimate D2E/DX2                !
 ! A4    A(3,1,4)              107.5926         estimate D2E/DX2                !
 ! A5    A(3,1,5)              111.2906         estimate D2E/DX2                !
 ! A6    A(4,1,5)              110.6723         estimate D2E/DX2                !
 ! A7    A(1,5,6)              109.7934         estimate D2E/DX2                !
 ! A8    A(1,5,7)              112.4337         estimate D2E/DX2                !
 ! A9    A(1,5,10)             111.7807         estimate D2E/DX2                !
 ! A10   A(6,5,7)              107.4031         estimate D2E/DX2                !
 ! A11   A(6,5,10)             109.8381         estimate D2E/DX2                !
 ! A12   A(7,5,10)             105.4189         estimate D2E/DX2                !
 ! A13   A(5,7,8)              110.4941         estimate D2E/DX2                !
 ! A14   A(5,7,9)              109.6933         estimate D2E/DX2                !
 ! A15   A(5,7,12)             116.0403         estimate D2E/DX2                !
 ! A16   A(8,7,9)              104.2945         estimate D2E/DX2                !
 ! A17   A(8,7,12)             106.6153         estimate D2E/DX2                !
 ! A18   A(9,7,12)             109.0222         estimate D2E/DX2                !
 ! A19   A(5,10,11)            108.1833         estimate D2E/DX2                !
 ! D1    D(2,1,5,6)            177.0639         estimate D2E/DX2                !
 ! D2    D(2,1,5,7)             57.56           estimate D2E/DX2                !
 ! D3    D(2,1,5,10)           -60.7815         estimate D2E/DX2                !
 ! D4    D(3,1,5,6)             56.7379         estimate D2E/DX2                !
 ! D5    D(3,1,5,7)            -62.766          estimate D2E/DX2                !
 ! D6    D(3,1,5,10)           178.8925         estimate D2E/DX2                !
 ! D7    D(4,1,5,6)            -62.8492         estimate D2E/DX2                !
 ! D8    D(4,1,5,7)            177.6469         estimate D2E/DX2                !
 ! D9    D(4,1,5,10)            59.3054         estimate D2E/DX2                !
 ! D10   D(1,5,7,8)             73.9319         estimate D2E/DX2                !
 ! D11   D(1,5,7,9)           -171.628          estimate D2E/DX2                !
 ! D12   D(1,5,7,12)           -47.56           estimate D2E/DX2                !
 ! D13   D(6,5,7,8)            -46.9543         estimate D2E/DX2                !
 ! D14   D(6,5,7,9)             67.4858         estimate D2E/DX2                !
 ! D15   D(6,5,7,12)          -168.4463         estimate D2E/DX2                !
 ! D16   D(10,5,7,8)          -164.043          estimate D2E/DX2                !
 ! D17   D(10,5,7,9)           -49.6029         estimate D2E/DX2                !
 ! D18   D(10,5,7,12)           74.465          Scan                            !
 ! D19   D(1,5,10,11)          -52.3729         estimate D2E/DX2                !
 ! D20   D(6,5,10,11)           69.7561         estimate D2E/DX2                !
 ! D21   D(7,5,10,11)         -174.8186         estimate D2E/DX2                !
 --------------------------------------------------------------------------------
 Trust Radius=3.00D-01 FncErr=1.00D-07 GrdErr=1.00D-06 EigMax=2.50D+02 EigMin=1.00D-04
 Number of optimizations in scan=  25
 Number of steps in this run=    100 maximum allowed number of steps=    100.
 GradGradGradGradGradGradGradGradGradGradGradGradGradGradGradGradGradGrad

                          Input orientation:                          
 ---------------------------------------------------------------------
 Center     Atomic      Atomic             Coordinates (Angstroms)
 Number     Number       Type             X           Y           Z
 ---------------------------------------------------------------------
      1          6           0       -1.001624    1.218490   -0.106671
      2          1           0       -0.583233    1.370871   -1.102686
      3          1           0       -0.707391    2.058155    0.530419
      4          1           0       -2.093731    1.223564   -0.177138
      5          6           0       -0.504847   -0.107328    0.460131
      6          1           0       -0.883316   -0.239554    1.486633
      7          6           0        1.024324   -0.180238    0.522568
      8          1           0        1.409725    0.452147    1.347685
      9          1           0        1.337584   -1.204739    0.794722
     10          8           0       -0.905173   -1.213839   -0.350610
     11          1           0       -1.856219   -1.159472   -0.484280
     12          8           0        1.688856    0.203024   -0.605831
 ---------------------------------------------------------------------
                    Distance matrix (angstroms):
                    1          2          3          4          5
     1  C    0.000000
     2  H    1.091016   0.000000
     3  H    1.094301   1.776177   0.000000
     4  H    1.094390   1.777623   1.766102   0.000000
     5  C    1.525072   2.152583   2.176070   2.168395   0.000000
     6  H    2.162986   3.063999   2.494947   2.524669   1.102011
     7  C    2.541033   2.762540   2.830071   3.490346   1.532181
     8  H    2.918396   3.289415   2.780174   3.897996   2.183197
     9  H    3.486609   3.731416   3.859826   4.314521   2.170441
    10  O    2.446433   2.711086   3.394300   2.717296   1.428961
    11  H    2.554922   2.899234   3.564063   2.414458   1.955793
    12  O    2.918735   2.602522   3.236445   3.941224   2.458643
                    6          7          8          9         10
     6  H    0.000000
     7  C    2.138231   0.000000
     8  H    2.399124   1.108721   0.000000
     9  H    2.518476   1.105351   1.748212   0.000000
    10  O    2.079705   2.356635   3.319408   2.518298   0.000000
    11  H    2.382706   3.204711   4.076739   3.440679   0.961931
    12  O    3.345198   1.364469   1.989020   2.016615   2.966753
                   11         12
    11  H    0.000000
    12  O    3.799832   0.000000
 Stoichiometry    C3H7O2(2)
 Framework group  C1[X(C3H7O2)]
 Deg. of freedom    30
 Full point group                 C1      NOp   1
 Largest Abelian subgroup         C1      NOp   1
 Largest concise Abelian subgroup C1      NOp   1
                         Standard orientation:                         
 ---------------------------------------------------------------------
 Center     Atomic      Atomic             Coordinates (Angstroms)
 Number     Number       Type             X           Y           Z
 ---------------------------------------------------------------------
      1          6           0       -1.001625    1.218490   -0.106671
      2          1           0       -0.583234    1.370871   -1.102686
      3          1           0       -0.707392    2.058155    0.530419
      4          1           0       -2.093732    1.223563   -0.177138
      5          6           0       -0.504847   -0.107328    0.460131
      6          1           0       -0.883316   -0.239554    1.486633
      7          6           0        1.024324   -0.180237    0.522568
      8          1           0        1.409725    0.452148    1.347685
      9          1           0        1.337585   -1.204738    0.794722
     10          8           0       -0.905172   -1.213839   -0.350610
     11          1           0       -1.856218   -1.159473   -0.484280
     12          8           0        1.688856    0.203025   -0.605831
 ---------------------------------------------------------------------
 Rotational constants (GHZ):           6.9178404           4.2107671           3.3036424
 Standard basis: 6-311G(2d,d,p) (5D, 7F)
 There are   137 symmetry adapted cartesian basis functions of A   symmetry.
 There are   132 symmetry adapted basis functions of A   symmetry.
   132 basis functions,   216 primitive gaussians,   137 cartesian basis functions
    21 alpha electrons       20 beta electrons
       nuclear repulsion energy       185.6016144145 Hartrees.
 NAtoms=   12 NActive=   12 NUniq=   12 SFac= 1.00D+00 NAtFMM=   60 NAOKFM=F Big=F
 Integral buffers will be    131072 words long.
 Raffenetti 2 integral format.
 Two-electron integral symmetry is turned on.
 One-electron integrals computed using PRISM.
 NBasis=   132 RedAO= T EigKep=  2.29D-03  NBF=   132
 NBsUse=   132 1.00D-06 EigRej= -1.00D+00 NBFU=   132
 ExpMin= 1.03D-01 ExpMax= 8.59D+03 ExpMxC= 1.30D+03 IAcc=3 IRadAn=         5 AccDes= 0.00D+00
 Harris functional with IExCor=  402 and IRadAn=       5 diagonalized for initial guess.
 HarFok:  IExCor=  402 AccDes= 0.00D+00 IRadAn=         5 IDoV= 1 UseB2=F ITyADJ=14
 ICtDFT=  3500011 ScaDFX=  1.000000  1.000000  1.000000  1.000000
 FoFCou: FMM=F IPFlag=           0 FMFlag=      100000 FMFlg1=           0
         NFxFlg=           0 DoJE=T BraDBF=F KetDBF=T FulRan=T
         wScrn=  0.000000 ICntrl=       500 IOpCl=  0 I1Cent=   200000004 NGrid=           0
         NMat0=    1 NMatS0=      1 NMatT0=    0 NMatD0=    1 NMtDS0=    0 NMtDT0=    0
 Petite list used in FoFCou.
 Initial guess <Sx>= 0.0000 <Sy>= 0.0000 <Sz>= 0.5000 <S**2>= 0.7500 S= 0.5000
 Keep R1 and R2 ints in memory in canonical form, NReq=78377335.
 Gradient too large for Newton-Raphson -- use scaled steepest descent instead.
     Minimum is close to point  3 DX=  2.40D-03 DF= -5.36D-06 DXR=  5.96D-03 DFR=  3.56D-05 which will be used.
 Gradient too large for Newton-Raphson -- use scaled steepest descent instead.
     Accept linear search using points  2 and  3.
 Gradient too large for Newton-Raphson -- use scaled steepest descent instead.
 Gradient too large for Newton-Raphson -- use scaled steepest descent instead.
     Accept linear search using points  1 and  2.
 Gradient too large for Newton-Raphson -- use scaled steepest descent instead.
 LinEq1:  Iter=  0 NonCon=     1 RMS=6.86D-05 Max=1.98D-03 NDo=     1
 AX will form     1 AO Fock derivatives at one time.
 LinEq1:  Iter=  1 NonCon=     1 RMS=7.42D-05 Max=2.84D-03 NDo=     1
 LinEq1:  Iter=  2 NonCon=     1 RMS=3.52D-05 Max=1.49D-03 NDo=     1
 LinEq1:  Iter=  3 NonCon=     1 RMS=1.60D-05 Max=3.57D-04 NDo=     1
 LinEq1:  Iter=  4 NonCon=     1 RMS=9.72D-06 Max=1.47D-04 NDo=     1
 LinEq1:  Iter=  5 NonCon=     1 RMS=2.38D-06 Max=2.36D-05 NDo=     1
 LinEq1:  Iter=  6 NonCon=     1 RMS=1.08D-06 Max=2.25D-05 NDo=     1
 LinEq1:  Iter=  7 NonCon=     1 RMS=6.85D-07 Max=1.17D-05 NDo=     1
 LinEq1:  Iter=  8 NonCon=     1 RMS=3.60D-07 Max=7.08D-06 NDo=     1
 LinEq1:  Iter=  9 NonCon=     1 RMS=2.04D-07 Max=4.06D-06 NDo=     1
 LinEq1:  Iter= 10 NonCon=     1 RMS=9.27D-08 Max=2.13D-06 NDo=     1
 LinEq1:  Iter= 11 NonCon=     1 RMS=3.24D-08 Max=6.70D-07 NDo=     1
 LinEq1:  Iter= 12 NonCon=     1 RMS=1.40D-08 Max=1.43D-07 NDo=     1
 LinEq1:  Iter= 13 NonCon=     1 RMS=6.51D-09 Max=9.23D-08 NDo=     1
 LinEq1:  Iter= 14 NonCon=     0 RMS=2.06D-09 Max=2.34D-08 NDo=     1
 Linear equations converged to 6.761D-09 6.761D-08 after    14 iterations.
     Minimum is close to point  2 DX=  1.13D-03 DF= -1.88D-11 DXR=  1.13D-03 DFR=  1.28D-06 which will be used.
 LinEq1:  Iter=  0 NonCon=     1 RMS=8.14D-07 Max=1.35D-05 NDo=     1
 LinEq1:  Iter=  1 NonCon=     1 RMS=5.19D-07 Max=6.58D-06 NDo=     1
 LinEq1:  Iter=  2 NonCon=     1 RMS=1.56D-07 Max=3.40D-06 NDo=     1
 LinEq1:  Iter=  3 NonCon=     1 RMS=1.41D-07 Max=5.63D-06 NDo=     1
 LinEq1:  Iter=  4 NonCon=     1 RMS=1.20D-07 Max=5.12D-06 NDo=     1
 LinEq1:  Iter=  5 NonCon=     1 RMS=5.33D-08 Max=1.06D-06 NDo=     1
 LinEq1:  Iter=  6 NonCon=     1 RMS=1.66D-08 Max=2.43D-07 NDo=     1
 LinEq1:  Iter=  7 NonCon=     1 RMS=9.36D-09 Max=1.79D-07 NDo=     1
 LinEq1:  Iter=  8 NonCon=     1 RMS=6.84D-09 Max=1.56D-07 NDo=     1
 LinEq1:  Iter=  9 NonCon=     1 RMS=2.51D-09 Max=5.35D-08 NDo=     1
 LinEq1:  Iter= 10 NonCon=     1 RMS=1.51D-09 Max=3.22D-08 NDo=     1
 LinEq1:  Iter= 11 NonCon=     1 RMS=5.53D-10 Max=9.88D-09 NDo=     1
 LinEq1:  Iter= 12 NonCon=     0 RMS=1.68D-10 Max=1.81D-09 NDo=     1
 Linear equations converged to 7.548D-10 7.548D-09 after    12 iterations.
 SCF Done:  E(UB3LYP) =  -268.977445191     a.u. after    8 cycles
            Convg  =    0.9389D-08                    45 Fock formations.
              S**2 =  0.7532                  -V/T =  2.0033
 <Sx>= 0.0000 <Sy>= 0.0000 <Sz>= 0.5000 <S**2>= 0.7532 S= 0.5016
 <L.S>=  0.00000000000    
 Annihilation of the first spin contaminant:
 S**2 before annihilation     0.7532,   after     0.7500

 **********************************************************************

            Population analysis using the SCF density.

 **********************************************************************

 Orbital symmetries:
 Alpha Orbitals:
       Occupied  (A) (A) (A) (A) (A) (A) (A) (A) (A) (A) (A) (A)
                 (A) (A) (A) (A) (A) (A) (A) (A) (A)
       Virtual   (A) (A) (A) (A) (A) (A) (A) (A) (A) (A) (A) (A)
                 (A) (A) (A) (A) (A) (A) (A) (A) (A) (A) (A) (A)
                 (A) (A) (A) (A) (A) (A) (A) (A) (A) (A) (A) (A)
                 (A) (A) (A) (A) (A) (A) (A) (A) (A) (A) (A) (A)
                 (A) (A) (A) (A) (A) (A) (A) (A) (A) (A) (A) (A)
                 (A) (A) (A) (A) (A) (A) (A) (A) (A) (A) (A) (A)
                 (A) (A) (A) (A) (A) (A) (A) (A) (A) (A) (A) (A)
                 (A) (A) (A) (A) (A) (A) (A) (A) (A) (A) (A) (A)
                 (A) (A) (A) (A) (A) (A) (A) (A) (A) (A) (A) (A)
                 (A) (A) (A)
 Beta  Orbitals:
       Occupied  (A) (A) (A) (A) (A) (A) (A) (A) (A) (A) (A) (A)
                 (A) (A) (A) (A) (A) (A) (A) (A)
       Virtual   (A) (A) (A) (A) (A) (A) (A) (A) (A) (A) (A) (A)
                 (A) (A) (A) (A) (A) (A) (A) (A) (A) (A) (A) (A)
                 (A) (A) (A) (A) (A) (A) (A) (A) (A) (A) (A) (A)
                 (A) (A) (A) (A) (A) (A) (A) (A) (A) (A) (A) (A)
                 (A) (A) (A) (A) (A) (A) (A) (A) (A) (A) (A) (A)
                 (A) (A) (A) (A) (A) (A) (A) (A) (A) (A) (A) (A)
                 (A) (A) (A) (A) (A) (A) (A) (A) (A) (A) (A) (A)
                 (A) (A) (A) (A) (A) (A) (A) (A) (A) (A) (A) (A)
                 (A) (A) (A) (A) (A) (A) (A) (A) (A) (A) (A) (A)
                 (A) (A) (A) (A)
 The electronic state is 2-A.
 Alpha  occ. eigenvalues --  -19.15994 -19.11762 -10.22860 -10.22821 -10.16685
 Alpha  occ. eigenvalues --   -1.03881  -1.01885  -0.77014  -0.69031  -0.59239
 Alpha  occ. eigenvalues --   -0.52670  -0.49059  -0.45797  -0.45288  -0.42425
 Alpha  occ. eigenvalues --   -0.38997  -0.38234  -0.34748  -0.32834  -0.28635
 Alpha  occ. eigenvalues --   -0.27937
 Alpha virt. eigenvalues --    0.02521   0.06241   0.08105   0.08979   0.09560
 Alpha virt. eigenvalues --    0.12296   0.13120   0.15953   0.19926   0.20846
 Alpha virt. eigenvalues --    0.23290   0.29412   0.32785   0.36948   0.38835
 Alpha virt. eigenvalues --    0.41749   0.43990   0.47035   0.48257   0.50314
 Alpha virt. eigenvalues --    0.52101   0.56644   0.56879   0.57632   0.58338
 Alpha virt. eigenvalues --    0.59275   0.62699   0.70656   0.74910   0.79270
 Alpha virt. eigenvalues --    0.83631   0.86492   0.87561   0.92756   0.95405
 Alpha virt. eigenvalues --    0.97942   1.03576   1.12062   1.19981   1.24219
 Alpha virt. eigenvalues --    1.29669   1.35900   1.37356   1.43159   1.45425
 Alpha virt. eigenvalues --    1.47311   1.49005   1.49997   1.52877   1.54542
 Alpha virt. eigenvalues --    1.56737   1.59606   1.62526   1.63837   1.68938
 Alpha virt. eigenvalues --    1.71452   1.72371   1.80422   1.89969   1.91472
 Alpha virt. eigenvalues --    1.94297   1.95529   2.06418   2.08631   2.10636
 Alpha virt. eigenvalues --    2.18819   2.23942   2.26320   2.35842   2.37307
 Alpha virt. eigenvalues --    2.37733   2.41536   2.46563   2.50334   2.53248
 Alpha virt. eigenvalues --    2.55208   2.59482   2.60111   2.64991   2.72482
 Alpha virt. eigenvalues --    2.76464   2.80680   2.85292   2.90507   2.94832
 Alpha virt. eigenvalues --    3.03683   3.10932   3.14206   3.20367   3.26224
 Alpha virt. eigenvalues --    3.28905   3.34516   3.72585   3.78660   3.79002
 Alpha virt. eigenvalues --    3.81018   3.88092   3.90876   4.07805   4.26807
 Alpha virt. eigenvalues --    4.81088   4.88844   4.89887   5.25980   5.43706
 Alpha virt. eigenvalues --    5.63824  23.73291  23.77297  23.91656  49.80392
 Alpha virt. eigenvalues --   49.89827
  Beta  occ. eigenvalues --  -19.13639 -19.11744 -10.22888 -10.22858 -10.16686
  Beta  occ. eigenvalues --   -1.02890  -0.97753  -0.76609  -0.68230  -0.58412
  Beta  occ. eigenvalues --   -0.52165  -0.47988  -0.44817  -0.42465  -0.41233
  Beta  occ. eigenvalues --   -0.38580  -0.38025  -0.34526  -0.28114  -0.26514
  Beta virt. eigenvalues --   -0.13807   0.02595   0.06357   0.08137   0.09262
  Beta virt. eigenvalues --    0.09671   0.12494   0.13183   0.16591   0.20109
  Beta virt. eigenvalues --    0.20976   0.23521   0.29661   0.33000   0.37396
  Beta virt. eigenvalues --    0.38997   0.41997   0.45090   0.47554   0.48611
  Beta virt. eigenvalues --    0.50524   0.52453   0.56685   0.57066   0.57841
  Beta virt. eigenvalues --    0.58426   0.59428   0.62814   0.70745   0.75987
  Beta virt. eigenvalues --    0.81246   0.84691   0.87313   0.87847   0.94598
  Beta virt. eigenvalues --    0.96079   0.98564   1.04185   1.12450   1.20334
  Beta virt. eigenvalues --    1.24306   1.30174   1.36059   1.37680   1.44108
  Beta virt. eigenvalues --    1.45670   1.47343   1.49562   1.50175   1.53088
  Beta virt. eigenvalues --    1.54692   1.57176   1.59980   1.63583   1.64400
  Beta virt. eigenvalues --    1.69293   1.71895   1.72784   1.80607   1.90434
  Beta virt. eigenvalues --    1.91643   1.94548   1.95801   2.06550   2.09238
  Beta virt. eigenvalues --    2.11109   2.19175   2.24222   2.26898   2.36278
  Beta virt. eigenvalues --    2.37814   2.38349   2.41779   2.46771   2.50477
  Beta virt. eigenvalues --    2.53406   2.55493   2.59747   2.60889   2.65486
  Beta virt. eigenvalues --    2.72991   2.79004   2.83675   2.91181   2.92865
  Beta virt. eigenvalues --    2.96322   3.04500   3.11200   3.17286   3.22062
  Beta virt. eigenvalues --    3.27035   3.29464   3.34973   3.73546   3.78727
  Beta virt. eigenvalues --    3.79394   3.81034   3.89366   3.91723   4.07896
  Beta virt. eigenvalues --    4.26911   4.88113   4.91795   4.92382   5.26008
  Beta virt. eigenvalues --    5.45648   5.63869  23.73284  23.77239  23.91653
  Beta virt. eigenvalues --   49.82460  49.90185
          Condensed to atoms (all electrons):
               1          2          3          4          5          6
     1  C    4.946250   0.396216   0.373203   0.394115   0.334268  -0.047983
     2  H    0.396216   0.547316  -0.022640  -0.031394  -0.045585   0.012169
     3  H    0.373203  -0.022640   0.598643  -0.026104  -0.026528   0.000164
     4  H    0.394115  -0.031394  -0.026104   0.594296  -0.029422  -0.009163
     5  C    0.334268  -0.045585  -0.026528  -0.029422   5.064421   0.352535
     6  H   -0.047983   0.012169   0.000164  -0.009163   0.352535   0.671906
     7  C   -0.057029  -0.016007  -0.002381   0.008850   0.302305  -0.040301
     8  H   -0.003080   0.002188   0.001413  -0.000355  -0.052564   0.004761
     9  H    0.010420   0.000952  -0.000664  -0.000490  -0.062301  -0.001095
    10  O   -0.042865   0.007524   0.005105  -0.002543   0.258977  -0.031603
    11  H   -0.004379  -0.002002  -0.000270   0.006109  -0.036684  -0.006043
    12  O   -0.002713   0.020133  -0.000252  -0.000018  -0.071668   0.004933
               7          8          9         10         11         12
     1  C   -0.057029  -0.003080   0.010420  -0.042865  -0.004379  -0.002713
     2  H   -0.016007   0.002188   0.000952   0.007524  -0.002002   0.020133
     3  H   -0.002381   0.001413  -0.000664   0.005105  -0.000270  -0.000252
     4  H    0.008850  -0.000355  -0.000490  -0.002543   0.006109  -0.000018
     5  C    0.302305  -0.052564  -0.062301   0.258977  -0.036684  -0.071668
     6  H   -0.040301   0.004761  -0.001095  -0.031603  -0.006043   0.004933
     7  C    4.811383   0.369414   0.386422  -0.052903   0.008729   0.302841
     8  H    0.369414   0.586268  -0.018153   0.003897  -0.000770  -0.025234
     9  H    0.386422  -0.018153   0.564158   0.005874  -0.000856  -0.025784
    10  O   -0.052903   0.003897   0.005874   7.929759   0.310770   0.001360
    11  H    0.008729  -0.000770  -0.000856   0.310770   0.488536  -0.000462
    12  O    0.302841  -0.025234  -0.025784   0.001360  -0.000462   8.026350
          Atomic-Atomic Spin Densities.
               1          2          3          4          5          6
     1  C    0.006368   0.001224  -0.000385   0.000323  -0.003911   0.000387
     2  H    0.001224  -0.001297   0.000124  -0.000174   0.001417  -0.000241
     3  H   -0.000385   0.000124  -0.000154   0.000040   0.000010  -0.000016
     4  H    0.000323  -0.000174   0.000040  -0.000288  -0.000011  -0.000022
     5  C   -0.003911   0.001417   0.000010  -0.000011  -0.018647   0.003359
     6  H    0.000387  -0.000241  -0.000016  -0.000022   0.003359  -0.003789
     7  C   -0.001855  -0.000254   0.000190  -0.000045   0.021519  -0.000986
     8  H   -0.004867  -0.000173   0.000130  -0.000067   0.004963   0.000240
     9  H    0.001431  -0.000049   0.000001   0.000016   0.005841  -0.000518
    10  O   -0.001426   0.000000  -0.000011  -0.000038  -0.003147   0.000326
    11  H    0.000324   0.000097  -0.000003   0.000096   0.000184   0.000016
    12  O    0.002415  -0.001930   0.000032  -0.000006  -0.004634  -0.000270
               7          8          9         10         11         12
     1  C   -0.001855  -0.004867   0.001431  -0.001426   0.000324   0.002415
     2  H   -0.000254  -0.000173  -0.000049   0.000000   0.000097  -0.001930
     3  H    0.000190   0.000130   0.000001  -0.000011  -0.000003   0.000032
     4  H   -0.000045  -0.000067   0.000016  -0.000038   0.000096  -0.000006
     5  C    0.021519   0.004963   0.005841  -0.003147   0.000184  -0.004634
     6  H   -0.000986   0.000240  -0.000518   0.000326   0.000016  -0.000270
     7  C   -0.082966   0.009803   0.012693   0.000024  -0.000048  -0.029988
     8  H    0.009803   0.127643  -0.021213   0.000625  -0.000017  -0.020918
     9  H    0.012693  -0.021213   0.084826  -0.001805   0.000056  -0.012072
    10  O    0.000024   0.000625  -0.001805   0.011033  -0.000738   0.000563
    11  H   -0.000048  -0.000017   0.000056  -0.000738   0.000086   0.000008
    12  O   -0.029988  -0.020918  -0.012072   0.000563   0.000008   0.963912
 Mulliken charges and spin densities:
               1          2
     1  C   -0.296423   0.000027
     2  H    0.131131  -0.001258
     3  H    0.100311  -0.000041
     4  H    0.096120  -0.000175
     5  C    0.012247   0.006942
     6  H    0.089719  -0.001514
     7  C   -0.021324  -0.071913
     8  H    0.132215   0.096149
     9  H    0.141517   0.069206
    10  O   -0.393351   0.005406
    11  H    0.237322   0.000059
    12  O   -0.229486   0.897112
 Sum of Mulliken charges =   0.00000   1.00000
 Mulliken charges and spin densities with hydrogens summed into heavy atoms:
               1          2
     1  C    0.031140  -0.001448
     5  C    0.101967   0.005428
     7  C    0.252408   0.093442
    10  O   -0.156028   0.005466
    12  O   -0.229486   0.897112
 Electronic spatial extent (au):  <R**2>=            432.1959
 Charge=              0.0000 electrons
 Dipole moment (field-independent basis, Debye):
    X=             -1.8915    Y=              0.5958    Z=              2.0499  Tot=              2.8521
 Quadrupole moment (field-independent basis, Debye-Ang):
   XX=            -29.4087   YY=            -32.2609   ZZ=            -31.0648
   XY=              0.0062   XZ=              3.2261   YZ=              0.0781
 Traceless Quadrupole moment (field-independent basis, Debye-Ang):
   XX=              1.5028   YY=             -1.3494   ZZ=             -0.1534
   XY=              0.0062   XZ=              3.2261   YZ=              0.0781
 Octapole moment (field-independent basis, Debye-Ang**2):
  XXX=            -14.1621  YYY=             -1.9472  ZZZ=             -2.0935  XYY=              2.4329
  XXY=             -7.5292  XXZ=              0.8656  XZZ=              0.6342  YZZ=             -1.4249
  YYZ=              0.0279  XYZ=             -0.1389
 Hexadecapole moment (field-independent basis, Debye-Ang**3):
 XXXX=           -266.7585 YYYY=           -180.1854 ZZZZ=            -88.7268 XXXY=             17.3237
 XXXZ=             11.1412 YYYX=              7.2681 YYYZ=              2.3683 ZZZX=             -0.2802
 ZZZY=              1.7704 XXYY=            -68.6219 XXZZ=            -60.5518 YYZZ=            -43.3127
 XXYZ=              4.5287 YYXZ=              1.3993 ZZXY=              3.3692
 N-N= 1.856016144145D+02 E-N=-1.002016816050D+03  KE= 2.680848900653D+02
                          Isotropic Fermi Contact Couplings
        Atom                 a.u.       MegaHertz       Gauss      10(-4) cm-1
     1  C(13)             -0.00107      -1.19741      -0.42726      -0.39941
     2  H(1)               0.00025       1.09963       0.39238       0.36680
     3  H(1)              -0.00002      -0.10031      -0.03579      -0.03346
     4  H(1)              -0.00008      -0.37621      -0.13424      -0.12549
     5  C(13)             -0.00269      -3.01859      -1.07711      -1.00689
     6  H(1)              -0.00037      -1.67031      -0.59601      -0.55716
     7  C(13)             -0.03339     -37.54220     -13.39599     -12.52273
     8  H(1)               0.04375     195.53673      69.77237      65.22403
     9  H(1)               0.03215     143.68744      51.27125      47.92897
    10  O(17)              0.00116      -0.70378      -0.25113      -0.23476
    11  H(1)              -0.00005      -0.20600      -0.07351      -0.06872
    12  O(17)              0.05362     -32.50321     -11.59795     -10.84190
 --------------------------------------------------------
       Center         ----  Spin Dipole Couplings  ----
                      3XX-RR        3YY-RR        3ZZ-RR
 --------------------------------------------------------
     1   Atom        0.007666     -0.003876     -0.003789
     2   Atom        0.008922     -0.003023     -0.005899
     3   Atom        0.003142     -0.000271     -0.002871
     4   Atom        0.003865     -0.001740     -0.002125
     5   Atom        0.009606     -0.006565     -0.003042
     6   Atom        0.004770     -0.003724     -0.001046
     7   Atom       -0.029798      0.019698      0.010100
     8   Atom       -0.008444     -0.013323      0.021767
     9   Atom       -0.008736      0.006484      0.002252
    10   Atom       -0.007987     -0.017798      0.025786
    11   Atom        0.005383     -0.002683     -0.002700
    12   Atom       -1.703670      2.640268     -0.936598
 --------------------------------------------------------
                        XY            XZ            YZ
 --------------------------------------------------------
     1   Atom       -0.004317     -0.001754      0.000464
     2   Atom       -0.007721      0.004066     -0.001778
     3   Atom       -0.005474     -0.002431      0.001740
     4   Atom       -0.001690     -0.000332      0.000144
     5   Atom        0.000722     -0.007288     -0.001031
     6   Atom        0.001068     -0.005115     -0.000235
     7   Atom        0.018518     -0.030963      0.007663
     8   Atom        0.004021     -0.000478      0.006513
     9   Atom       -0.001692     -0.002702     -0.018632
    10   Atom        0.004247      0.001566     -0.005338
    11   Atom        0.002149      0.000217     -0.000096
    12   Atom        0.608011      0.262361      1.942862
 --------------------------------------------------------


 ---------------------------------------------------------------------------------
              Anisotropic Spin Dipole Couplings in Principal Axis System
 ---------------------------------------------------------------------------------

       Atom             a.u.   MegaHertz   Gauss  10(-4) cm-1        Axes

              Baa    -0.0053    -0.714    -0.255    -0.238  0.3247  0.9419  0.0861
     1 C(13)  Bbb    -0.0040    -0.541    -0.193    -0.180  0.1017 -0.1253  0.9869
              Bcc     0.0094     1.255     0.448     0.419  0.9403 -0.3117 -0.1365
 
              Baa    -0.0071    -3.763    -1.343    -1.255 -0.4278 -0.4826  0.7642
     2 H(1)   Bbb    -0.0067    -3.554    -1.268    -1.185  0.2205  0.7642  0.6061
              Bcc     0.0137     7.317     2.611     2.441  0.8766 -0.4278  0.2205
 
              Baa    -0.0043    -2.294    -0.819    -0.765  0.6042  0.7945  0.0609
     3 H(1)   Bbb    -0.0037    -1.970    -0.703    -0.657  0.1760 -0.2076  0.9622
              Bcc     0.0080     4.264     1.521     1.422  0.7771 -0.5707 -0.2653
 
              Baa    -0.0022    -1.194    -0.426    -0.398  0.2106  0.8539 -0.4759
     4 H(1)   Bbb    -0.0021    -1.130    -0.403    -0.377  0.1747  0.4461  0.8778
              Bcc     0.0044     2.324     0.829     0.775  0.9618 -0.2680 -0.0552
 
              Baa    -0.0071    -0.959    -0.342    -0.320  0.2248  0.7729  0.5933
     5 C(13)  Bbb    -0.0058    -0.785    -0.280    -0.262  0.3545 -0.6321  0.6891
              Bcc     0.0130     1.743     0.622     0.582  0.9076  0.0554 -0.4161
 
              Baa    -0.0043    -2.277    -0.812    -0.759  0.4488 -0.5920  0.6694
     6 H(1)   Bbb    -0.0036    -1.906    -0.680    -0.636  0.2351  0.8010  0.5506
              Bcc     0.0078     4.183     1.492     1.395  0.8621  0.0898 -0.4987
 
              Baa    -0.0522    -7.006    -2.500    -2.337  0.8495 -0.2672  0.4550
     7 C(13)  Bbb     0.0239     3.202     1.143     1.068 -0.0642  0.8036  0.5918
              Bcc     0.0283     3.804     1.357     1.269 -0.5238 -0.5319  0.6654
 
              Baa    -0.0165    -8.813    -3.145    -2.940 -0.4478  0.8805 -0.1554
     8 H(1)   Bbb    -0.0064    -3.426    -1.223    -1.143  0.8941  0.4394 -0.0864
              Bcc     0.0229    12.239     4.367     4.083  0.0078  0.1776  0.9841
 
              Baa    -0.0158    -8.423    -3.005    -2.810  0.4075  0.6040  0.6849
     9 H(1)   Bbb    -0.0073    -3.918    -1.398    -1.307  0.9131 -0.2834 -0.2933
              Bcc     0.0231    12.340     4.403     4.116  0.0170  0.7449 -0.6670
 
              Baa    -0.0201     1.451     0.518     0.484 -0.3435  0.9314  0.1202
    10 O(17)  Bbb    -0.0064     0.464     0.165     0.155  0.9387  0.3446  0.0115
              Bcc     0.0265    -1.915    -0.683    -0.639  0.0307 -0.1168  0.9927
 
              Baa    -0.0033    -1.738    -0.620    -0.580 -0.2394  0.9370  0.2543
    11 H(1)   Bbb    -0.0027    -1.422    -0.508    -0.474  0.0412 -0.2519  0.9669
              Bcc     0.0059     3.161     1.128     1.054  0.9700  0.2420  0.0217
 
              Baa    -1.7919   129.659    46.266    43.250  0.6040 -0.3880  0.6961
    12 O(17)  Bbb    -1.7837   129.067    46.054    43.052  0.7872  0.1541 -0.5972
              Bcc     3.5756  -258.726   -92.320   -86.302  0.1245  0.9087  0.3985
 

 ---------------------------------------------------------------------------------

 Calling FoFJK, ICntrl=      2127 FMM=F ISym2X=0 I1Cent= 0 IOpClX= 1 NMat=1 NMatS=1 NMatT=0.
 ***** Axes restored to original set *****
 -------------------------------------------------------------------
 Center     Atomic                   Forces (Hartrees/Bohr)
 Number     Number              X              Y              Z
 -------------------------------------------------------------------
      1        6          -0.000000273   -0.000001213   -0.000000184
      2        1          -0.000000423    0.000000516    0.000000438
      3        1          -0.000000605   -0.000002021   -0.000000061
      4        1          -0.000000182   -0.000000091    0.000000838
      5        6           0.000002192   -0.000000579   -0.000000713
      6        1          -0.000000742   -0.000000696    0.000000319
      7        6           0.000000105   -0.000000378    0.000000112
      8        1           0.000001189    0.000000296   -0.000000155
      9        1           0.000000278    0.000001639   -0.000000882
     10        8          -0.000002032    0.000001517   -0.000000516
     11        1           0.000000928    0.000000503    0.000000274
     12        8          -0.000000434    0.000000505    0.000000530
 -------------------------------------------------------------------
 Cartesian Forces:  Max     0.000002192 RMS     0.000000883

 GradGradGradGradGradGradGradGradGradGradGradGradGradGradGradGradGradGrad
 Berny optimization.
 FormGI is forming the generalized inverse of G from B-inverse, IUseBI=4.
 Internal  Forces:  Max     0.000002441 RMS     0.000000874
 Search for a local minimum.
 Step number   1 out of a maximum of  100 on scan point     1 out of    25
 All quantities printed in internal units (Hartrees-Bohrs-Radians)
 Mixed Optimization -- En-DIIS/RFO-DIIS
 Second derivative matrix not updated -- first step.
 ITU=  0
     Eigenvalues ---    0.00434   0.01309   0.01772   0.04388   0.04861
     Eigenvalues ---    0.05600   0.05709   0.05959   0.07121   0.15635
     Eigenvalues ---    0.16000   0.16000   0.16000   0.16000   0.16000
     Eigenvalues ---    0.16000   0.19728   0.22162   0.29223   0.29883
     Eigenvalues ---    0.32736   0.33097   0.33461   0.34310   0.34320
     Eigenvalues ---    0.34695   0.41139   0.52054   0.550601000.00000
     Eigenvalues --- 1000.000001000.000001000.000001000.000001000.00000
     Eigenvalues --- 1000.000001000.000001000.000001000.000001000.00000
     Eigenvalues --- 1000.000001000.000001000.000001000.000001000.00000
     Eigenvalues --- 1000.000001000.000001000.000001000.000001000.00000
     Eigenvalues --- 1000.00000
 RFO step:  Lambda= 0.00000000D+00 EMin= 4.34290174D-03
 Linear search not attempted -- first point.
 Iteration  1 RMS(Cart)=  0.00001210 RMS(Int)=  0.00000000
 Iteration  2 RMS(Cart)=  0.00000000 RMS(Int)=  0.00000000
 Iteration  1 RMS(Cart)=  0.00000000 RMS(Int)=  0.00000000
 Variable       Old X    -DE/DX   Delta X   Delta X   Delta X     New X
                                 (Linear)    (Quad)   (Total)
    R1        2.06172  -0.00000   0.00000  -0.00000  -0.00000   2.06172
    R2        2.06793  -0.00000   0.00000  -0.00001  -0.00001   2.06792
    R3        2.06810  -0.00000   0.00000  -0.00000  -0.00000   2.06810
    R4        2.88197  -0.00000   0.00000  -0.00001  -0.00001   2.88196
    R5        2.08250   0.00000   0.00000   0.00000   0.00000   2.08250
    R6        2.89540   0.00000   0.00000   0.00000   0.00000   2.89540
    R7        2.70034  -0.00000   0.00000  -0.00000  -0.00000   2.70034
    R8        2.09518   0.00000   0.00000   0.00000   0.00000   2.09518
    R9        2.08881  -0.00000   0.00000  -0.00000  -0.00000   2.08881
   R10        2.57847  -0.00000   0.00000  -0.00000  -0.00000   2.57847
   R11        1.81779  -0.00000   0.00000  -0.00000  -0.00000   1.81779
    A1        1.89781   0.00000   0.00000   0.00000   0.00000   1.89781
    A2        1.89997  -0.00000   0.00000   0.00000   0.00000   1.89997
    A3        1.91325   0.00000   0.00000   0.00000   0.00000   1.91325
    A4        1.87784   0.00000   0.00000  -0.00000  -0.00000   1.87784
    A5        1.94239  -0.00000   0.00000  -0.00001  -0.00001   1.94238
    A6        1.93160   0.00000   0.00000   0.00000   0.00000   1.93160
    A7        1.91626   0.00000   0.00000  -0.00000  -0.00000   1.91625
    A8        1.96234  -0.00000   0.00000   0.00000   0.00000   1.96234
    A9        1.95094  -0.00000   0.00000  -0.00002  -0.00002   1.95093
   A10        1.87454  -0.00000   0.00000   0.00001   0.00001   1.87454
   A11        1.91704  -0.00000   0.00000  -0.00000  -0.00000   1.91703
   A12        1.83991   0.00000   0.00000   0.00002   0.00002   1.83992
   A13        1.92849   0.00000   0.00000   0.00001   0.00001   1.92849
   A14        1.91451   0.00000   0.00000   0.00000   0.00000   1.91451
   A15        2.02528  -0.00000   0.00000  -0.00000  -0.00000   2.02528
   A16        1.82028  -0.00000   0.00000  -0.00000  -0.00000   1.82028
   A17        1.86079  -0.00000   0.00000  -0.00001  -0.00001   1.86078
   A18        1.90280  -0.00000   0.00000  -0.00000  -0.00000   1.90280
   A19        1.88815  -0.00000   0.00000  -0.00001  -0.00001   1.88815
    D1        3.09035   0.00000   0.00000   0.00001   0.00001   3.09036
    D2        1.00461   0.00000   0.00000   0.00000   0.00000   1.00461
    D3       -1.06084  -0.00000   0.00000  -0.00001  -0.00001  -1.06085
    D4        0.99026   0.00000   0.00000   0.00001   0.00001   0.99027
    D5       -1.09547   0.00000   0.00000   0.00000   0.00000  -1.09547
    D6        3.12226  -0.00000   0.00000  -0.00001  -0.00001   3.12226
    D7       -1.09693   0.00000   0.00000   0.00002   0.00002  -1.09691
    D8        3.10052   0.00000   0.00000   0.00001   0.00001   3.10053
    D9        1.03507  -0.00000   0.00000  -0.00000  -0.00000   1.03507
   D10        1.29036   0.00000   0.00000   0.00000   0.00000   1.29036
   D11       -2.99547   0.00000   0.00000   0.00001   0.00001  -2.99547
   D12       -0.83008   0.00000   0.00000   0.00001   0.00001  -0.83007
   D13       -0.81951   0.00000   0.00000   0.00000   0.00000  -0.81951
   D14        1.17785   0.00000   0.00000   0.00000   0.00000   1.17785
   D15       -2.93994   0.00000   0.00000   0.00001   0.00001  -2.93994
   D16       -2.86309  -0.00000   0.00000  -0.00000  -0.00000  -2.86310
   D17       -0.86573  -0.00000   0.00000  -0.00000  -0.00000  -0.86574
   D18        1.29966  -0.00000   0.00000   0.00000  -0.00000   1.29966
   D19       -0.91408   0.00000   0.00000   0.00001   0.00001  -0.91407
   D20        1.21747  -0.00000   0.00000  -0.00000  -0.00000   1.21747
   D21       -3.05116   0.00000   0.00000   0.00001   0.00001  -3.05115
         Item               Value     Threshold  Converged?
 Maximum Force            0.000002     0.000450     YES
 RMS     Force            0.000001     0.000300     YES
 Maximum Displacement     0.000051     0.001800     YES
 RMS     Displacement     0.000012     0.001200     YES
 Predicted change in Energy=-1.140059D-10
 Optimization completed.
    -- Stationary point found.
                           ----------------------------
                           !   Optimized Parameters   !
                           ! (Angstroms and Degrees)  !
 --------------------------                            --------------------------
 ! Name  Definition              Value          Derivative Info.                !
 --------------------------------------------------------------------------------
 ! R1    R(1,2)                  1.091          -DE/DX =    0.0                 !
 ! R2    R(1,3)                  1.0943         -DE/DX =    0.0                 !
 ! R3    R(1,4)                  1.0944         -DE/DX =    0.0                 !
 ! R4    R(1,5)                  1.5251         -DE/DX =    0.0                 !
 ! R5    R(5,6)                  1.102          -DE/DX =    0.0                 !
 ! R6    R(5,7)                  1.5322         -DE/DX =    0.0                 !
 ! R7    R(5,10)                 1.429          -DE/DX =    0.0                 !
 ! R8    R(7,8)                  1.1087         -DE/DX =    0.0                 !
 ! R9    R(7,9)                  1.1054         -DE/DX =    0.0                 !
 ! R10   R(7,12)                 1.3645         -DE/DX =    0.0                 !
 ! R11   R(10,11)                0.9619         -DE/DX =    0.0                 !
 ! A1    A(2,1,3)              108.7364         -DE/DX =    0.0                 !
 ! A2    A(2,1,4)              108.86           -DE/DX =    0.0                 !
 ! A3    A(2,1,5)              109.621          -DE/DX =    0.0                 !
 ! A4    A(3,1,4)              107.5926         -DE/DX =    0.0                 !
 ! A5    A(3,1,5)              111.2906         -DE/DX =    0.0                 !
 ! A6    A(4,1,5)              110.6723         -DE/DX =    0.0                 !
 ! A7    A(1,5,6)              109.7934         -DE/DX =    0.0                 !
 ! A8    A(1,5,7)              112.4337         -DE/DX =    0.0                 !
 ! A9    A(1,5,10)             111.7807         -DE/DX =    0.0                 !
 ! A10   A(6,5,7)              107.4031         -DE/DX =    0.0                 !
 ! A11   A(6,5,10)             109.8381         -DE/DX =    0.0                 !
 ! A12   A(7,5,10)             105.4189         -DE/DX =    0.0                 !
 ! A13   A(5,7,8)              110.4941         -DE/DX =    0.0                 !
 ! A14   A(5,7,9)              109.6933         -DE/DX =    0.0                 !
 ! A15   A(5,7,12)             116.0403         -DE/DX =    0.0                 !
 ! A16   A(8,7,9)              104.2945         -DE/DX =    0.0                 !
 ! A17   A(8,7,12)             106.6153         -DE/DX =    0.0                 !
 ! A18   A(9,7,12)             109.0222         -DE/DX =    0.0                 !
 ! A19   A(5,10,11)            108.1833         -DE/DX =    0.0                 !
 ! D1    D(2,1,5,6)            177.0639         -DE/DX =    0.0                 !
 ! D2    D(2,1,5,7)             57.56           -DE/DX =    0.0                 !
 ! D3    D(2,1,5,10)           -60.7815         -DE/DX =    0.0                 !
 ! D4    D(3,1,5,6)             56.7379         -DE/DX =    0.0                 !
 ! D5    D(3,1,5,7)            -62.766          -DE/DX =    0.0                 !
 ! D6    D(3,1,5,10)           178.8925         -DE/DX =    0.0                 !
 ! D7    D(4,1,5,6)            -62.8492         -DE/DX =    0.0                 !
 ! D8    D(4,1,5,7)            177.6469         -DE/DX =    0.0                 !
 ! D9    D(4,1,5,10)            59.3054         -DE/DX =    0.0                 !
 ! D10   D(1,5,7,8)             73.9319         -DE/DX =    0.0                 !
 ! D11   D(1,5,7,9)           -171.628          -DE/DX =    0.0                 !
 ! D12   D(1,5,7,12)           -47.56           -DE/DX =    0.0                 !
 ! D13   D(6,5,7,8)            -46.9543         -DE/DX =    0.0                 !
 ! D14   D(6,5,7,9)             67.4858         -DE/DX =    0.0                 !
 ! D15   D(6,5,7,12)          -168.4463         -DE/DX =    0.0                 !
 ! D16   D(10,5,7,8)          -164.043          -DE/DX =    0.0                 !
 ! D17   D(10,5,7,9)           -49.6029         -DE/DX =    0.0                 !
 ! D18   D(10,5,7,12)           74.465          -DE/DX =    0.0                 !
 ! D19   D(1,5,10,11)          -52.3729         -DE/DX =    0.0                 !
 ! D20   D(6,5,10,11)           69.7561         -DE/DX =    0.0                 !
 ! D21   D(7,5,10,11)         -174.8186         -DE/DX =    0.0                 !
 --------------------------------------------------------------------------------
 Iteration  1 RMS(Cart)=  0.01948026 RMS(Int)=  0.02925448
 Iteration  2 RMS(Cart)=  0.00614715 RMS(Int)=  0.02875477
 Iteration  3 RMS(Cart)=  0.00015765 RMS(Int)=  0.02875458
 Iteration  4 RMS(Cart)=  0.00000438 RMS(Int)=  0.02875458
 Iteration  5 RMS(Cart)=  0.00000020 RMS(Int)=  0.02875458
 Iteration  1 RMS(Cart)=  0.01578326 RMS(Int)=  0.01771155
 Iteration  2 RMS(Cart)=  0.00976485 RMS(Int)=  0.01969504
 Iteration  3 RMS(Cart)=  0.00603522 RMS(Int)=  0.02252760
 Iteration  4 RMS(Cart)=  0.00372795 RMS(Int)=  0.02468467
 Iteration  5 RMS(Cart)=  0.00230199 RMS(Int)=  0.02613126
 Iteration  6 RMS(Cart)=  0.00142119 RMS(Int)=  0.02706042
 Iteration  7 RMS(Cart)=  0.00087730 RMS(Int)=  0.02764622
 Iteration  8 RMS(Cart)=  0.00054152 RMS(Int)=  0.02801214
 Iteration  9 RMS(Cart)=  0.00033424 RMS(Int)=  0.02823957
 Iteration 10 RMS(Cart)=  0.00020630 RMS(Int)=  0.02838054
 Iteration 11 RMS(Cart)=  0.00012733 RMS(Int)=  0.02846776
 Iteration 12 RMS(Cart)=  0.00007859 RMS(Int)=  0.02852168
 Iteration 13 RMS(Cart)=  0.00004850 RMS(Int)=  0.02855499
 Iteration 14 RMS(Cart)=  0.00002994 RMS(Int)=  0.02857556
 Iteration 15 RMS(Cart)=  0.00001848 RMS(Int)=  0.02858826
 Iteration 16 RMS(Cart)=  0.00001140 RMS(Int)=  0.02859610
 Iteration 17 RMS(Cart)=  0.00000704 RMS(Int)=  0.02860094
 Iteration 18 RMS(Cart)=  0.00000434 RMS(Int)=  0.02860393
 Iteration 19 RMS(Cart)=  0.00000268 RMS(Int)=  0.02860577
 Iteration 20 RMS(Cart)=  0.00000165 RMS(Int)=  0.02860691
 Iteration 21 RMS(Cart)=  0.00000102 RMS(Int)=  0.02860761
 Iteration 22 RMS(Cart)=  0.00000063 RMS(Int)=  0.02860804
 GradGradGradGradGradGradGradGradGradGradGradGradGradGradGradGradGradGrad

                          Input orientation:                          
 ---------------------------------------------------------------------
 Center     Atomic      Atomic             Coordinates (Angstroms)
 Number     Number       Type             X           Y           Z
 ---------------------------------------------------------------------
      1          6           0       -0.985783    1.247626   -0.121858
      2          1           0       -0.574483    1.403336   -1.120312
      3          1           0       -0.662547    2.070064    0.523673
      4          1           0       -2.078126    1.282311   -0.179863
      5          6           0       -0.517867   -0.098819    0.420492
      6          1           0       -0.890507   -0.246470    1.447038
      7          6           0        1.008097   -0.217562    0.491987
      8          1           0        1.350202    0.413864    1.336816
      9          1           0        1.344012   -1.235633    0.761316
     10          8           0       -0.909596   -1.277590   -0.286905
     11          1           0       -1.863207   -1.250598   -0.410546
     12          8           0        1.704760    0.330551   -0.546895
 ---------------------------------------------------------------------
                    Distance matrix (angstroms):
                    1          2          3          4          5
     1  C    0.000000
     2  H    1.091019   0.000000
     3  H    1.094348   1.776223   0.000000
     4  H    1.094432   1.777649   1.766177   0.000000
     5  C    1.525124   2.152615   2.176151   2.168491   0.000000
     6  H    2.168602   3.068064   2.504176   2.528718   1.102024
     7  C    2.549341   2.780535   2.832894   3.496537   1.532247
     8  H    2.877449   3.274285   2.730450   3.848109   2.142936
     9  H    3.517743   3.766338   3.874324   4.351653   2.207963
    10  O    2.531750   2.827408   3.453239   2.816028   1.429463
    11  H    2.663519   3.034459   3.652553   2.552456   1.956312
    12  O    2.874144   2.583529   3.126686   3.918008   2.461762
                    6          7          8          9         10
     6  H    0.000000
     7  C    2.125478   0.000000
     8  H    2.338582   1.108815   0.000000
     9  H    2.538057   1.105372   1.747020   0.000000
    10  O    2.017456   2.325485   3.256405   2.485815   0.000000
    11  H    2.324873   3.182156   4.018669   3.414635   0.961971
    12  O    3.323272   1.365666   1.918599   2.072315   3.080353
                   11         12
    11  H    0.000000
    12  O    3.904999   0.000000
 Stoichiometry    C3H7O2(2)
 Framework group  C1[X(C3H7O2)]
 Deg. of freedom    30
 Full point group                 C1      NOp   1
 Largest Abelian subgroup         C1      NOp   1
 Largest concise Abelian subgroup C1      NOp   1
                         Standard orientation:                         
 ---------------------------------------------------------------------
 Center     Atomic      Atomic             Coordinates (Angstroms)
 Number     Number       Type             X           Y           Z
 ---------------------------------------------------------------------
      1          6           0       -0.866807    1.328239   -0.061491
      2          1           0       -0.440075    1.500060   -1.050784
      3          1           0       -0.470488    2.080227    0.627742
      4          1           0       -1.951063    1.467234   -0.114901
      5          6           0       -0.527271   -0.083698    0.404504
      6          1           0       -0.914840   -0.252644    1.422199
      7          6           0        0.980903   -0.347219    0.465710
      8          1           0        1.377745    0.202111    1.343334
      9          1           0        1.220215   -1.405375    0.677563
     10          8           0       -1.024660   -1.180166   -0.366032
     11          1           0       -1.971312   -1.058059   -0.485734
     12          8           0        1.728268    0.190479   -0.542937
 ---------------------------------------------------------------------
 Rotational constants (GHZ):           6.7759627           4.2640085           3.1911307
 Standard basis: 6-311G(2d,d,p) (5D, 7F)
 There are   137 symmetry adapted cartesian basis functions of A   symmetry.
 There are   132 symmetry adapted basis functions of A   symmetry.
   132 basis functions,   216 primitive gaussians,   137 cartesian basis functions
    21 alpha electrons       20 beta electrons
       nuclear repulsion energy       185.0335482360 Hartrees.
 NAtoms=   12 NActive=   12 NUniq=   12 SFac= 1.00D+00 NAtFMM=   60 NAOKFM=F Big=F
 Integral buffers will be    131072 words long.
 Raffenetti 2 integral format.
 Two-electron integral symmetry is turned on.
 One-electron integrals computed using PRISM.
 NBasis=   132 RedAO= T EigKep=  2.17D-03  NBF=   132
 NBsUse=   132 1.00D-06 EigRej= -1.00D+00 NBFU=   132
 Initial guess from the checkpoint file:  "/rc_scratch/jasm3285/Gau-68651.chk"
 B after Tr=    -0.000000   -0.000000    0.000000
         Rot=    0.998869   -0.027181    0.003632    0.038853 Ang=  -5.45 deg.
 Initial guess <Sx>= 0.0000 <Sy>= 0.0000 <Sz>= 0.5000 <S**2>= 0.7532 S= 0.5016
 ExpMin= 1.03D-01 ExpMax= 8.59D+03 ExpMxC= 1.30D+03 IAcc=2 IRadAn=         4 AccDes= 0.00D+00
 Harris functional with IExCor=  402 and IRadAn=       4 diagonalized for initial guess.
 HarFok:  IExCor=  402 AccDes= 0.00D+00 IRadAn=         4 IDoV= 1 UseB2=F ITyADJ=14
 ICtDFT=  3500011 ScaDFX=  1.000000  1.000000  1.000000  1.000000
 FoFCou: FMM=F IPFlag=           0 FMFlag=      100000 FMFlg1=           0
         NFxFlg=           0 DoJE=T BraDBF=F KetDBF=T FulRan=T
         wScrn=  0.000000 ICntrl=       500 IOpCl=  0 I1Cent=   200000004 NGrid=           0
         NMat0=    1 NMatS0=      1 NMatT0=    0 NMatD0=    1 NMtDS0=    0 NMtDT0=    0
 Petite list used in FoFCou.
 Keep R1 and R2 ints in memory in canonical form, NReq=78377335.
 Gradient too large for Newton-Raphson -- use scaled steepest descent instead.
 Gradient too large for Newton-Raphson -- use scaled steepest descent instead.
 Gradient too large for Newton-Raphson -- use scaled steepest descent instead.
     Accept linear search using points  1 and  2.
 Gradient too large for Newton-Raphson -- use scaled steepest descent instead.
     Accept linear search using points  1 and  2.
 Gradient too large for Newton-Raphson -- use scaled steepest descent instead.
 Gradient too large for Newton-Raphson -- use scaled steepest descent instead.
 Gradient too large for Newton-Raphson -- use scaled steepest descent instead.
 Gradient too large for Newton-Raphson -- use scaled steepest descent instead.
     Minimum is close to point  2 DX= -3.17D-03 DF= -3.39D-08 DXR=  1.61D-02 DFR=  2.60D-04 which will be used.
 Gradient too large for Newton-Raphson -- use scaled steepest descent instead.
     Accept linear search using points  1 and  2.
 Gradient too large for Newton-Raphson -- use scaled steepest descent instead.
     Accept linear search using points  5 and  6.
     Minimum is close to point  6 DX= -1.66D-02 DF= -5.38D-08 DXR=  5.38D-03 DFR=  5.49D-05 which will be used.
 Gradient too large for Newton-Raphson -- use scaled steepest descent instead.
 Gradient too large for Newton-Raphson -- use scaled steepest descent instead.
 Gradient too large for Newton-Raphson -- use scaled steepest descent instead.
 Gradient too large for Newton-Raphson -- use scaled steepest descent instead.
     Accept linear search using points  1 and  2.
 Gradient too large for Newton-Raphson -- use scaled steepest descent instead.
     Minimum is close to point  3 DX=  2.44D-03 DF= -3.83D-08 DXR=  2.38D-02 DFR=  5.67D-04 which will be used.
 Gradient too large for Newton-Raphson -- use scaled steepest descent instead.
     Accept linear search using points  1 and  2.
 Gradient too large for Newton-Raphson -- use scaled steepest descent instead.
 Gradient too large for Newton-Raphson -- use scaled steepest descent instead.
     Minimum is close to point  3 DX=  1.60D-02 DF= -5.93D-08 DXR=  5.05D-02 DFR=  2.56D-03 which will be used.
 Gradient too large for Newton-Raphson -- use scaled steepest descent instead.
     Accept linear search using points  1 and  2.
 Gradient too large for Newton-Raphson -- use scaled steepest descent instead.
 Gradient too large for Newton-Raphson -- use scaled steepest descent instead.
 Gradient too large for Newton-Raphson -- use scaled steepest descent instead.
 Gradient too large for Newton-Raphson -- use scaled steepest descent instead.
 LinEq1:  Iter=  0 NonCon=     1 RMS=3.93D-04 Max=2.07D-02 NDo=     1
 AX will form     1 AO Fock derivatives at one time.
 LinEq1:  Iter=  1 NonCon=     1 RMS=9.60D-05 Max=3.21D-03 NDo=     1
 LinEq1:  Iter=  2 NonCon=     1 RMS=3.00D-05 Max=7.29D-04 NDo=     1
 LinEq1:  Iter=  3 NonCon=     1 RMS=2.27D-05 Max=4.59D-04 NDo=     1
 LinEq1:  Iter=  4 NonCon=     1 RMS=1.23D-05 Max=2.69D-04 NDo=     1
 LinEq1:  Iter=  5 NonCon=     1 RMS=4.56D-06 Max=1.14D-04 NDo=     1
 LinEq1:  Iter=  6 NonCon=     1 RMS=2.18D-06 Max=4.73D-05 NDo=     1
 LinEq1:  Iter=  7 NonCon=     1 RMS=9.95D-07 Max=2.39D-05 NDo=     1
 LinEq1:  Iter=  8 NonCon=     1 RMS=3.48D-07 Max=2.95D-06 NDo=     1
 LinEq1:  Iter=  9 NonCon=     1 RMS=2.25D-07 Max=4.02D-06 NDo=     1
 LinEq1:  Iter= 10 NonCon=     1 RMS=9.41D-08 Max=1.12D-06 NDo=     1
 LinEq1:  Iter= 11 NonCon=     1 RMS=4.43D-08 Max=5.37D-07 NDo=     1
 LinEq1:  Iter= 12 NonCon=     1 RMS=1.33D-08 Max=1.41D-07 NDo=     1
 LinEq1:  Iter= 13 NonCon=     0 RMS=4.61D-09 Max=4.50D-08 NDo=     1
 Linear equations converged to 6.761D-09 6.761D-08 after    13 iterations.
     Accept linear search using points  1 and  2.
 LinEq1:  Iter=  0 NonCon=     1 RMS=6.12D-05 Max=9.39D-04 NDo=     1
 LinEq1:  Iter=  1 NonCon=     1 RMS=4.14D-05 Max=8.55D-04 NDo=     1
 LinEq1:  Iter=  2 NonCon=     1 RMS=2.36D-05 Max=1.06D-03 NDo=     1
 LinEq1:  Iter=  3 NonCon=     1 RMS=1.64D-05 Max=5.39D-04 NDo=     1
 LinEq1:  Iter=  4 NonCon=     1 RMS=1.10D-05 Max=2.00D-04 NDo=     1
 LinEq1:  Iter=  5 NonCon=     1 RMS=6.38D-06 Max=1.68D-04 NDo=     1
 LinEq1:  Iter=  6 NonCon=     1 RMS=2.27D-06 Max=6.01D-05 NDo=     1
 LinEq1:  Iter=  7 NonCon=     1 RMS=9.86D-07 Max=2.95D-05 NDo=     1
 LinEq1:  Iter=  8 NonCon=     1 RMS=5.87D-07 Max=6.79D-06 NDo=     1
 LinEq1:  Iter=  9 NonCon=     1 RMS=2.92D-07 Max=7.45D-06 NDo=     1
 LinEq1:  Iter= 10 NonCon=     1 RMS=1.73D-07 Max=2.41D-06 NDo=     1
 LinEq1:  Iter= 11 NonCon=     1 RMS=5.44D-08 Max=5.90D-07 NDo=     1
 LinEq1:  Iter= 12 NonCon=     1 RMS=1.53D-08 Max=2.48D-07 NDo=     1
 LinEq1:  Iter= 13 NonCon=     1 RMS=7.91D-09 Max=8.56D-08 NDo=     1
 LinEq1:  Iter= 14 NonCon=     0 RMS=3.45D-09 Max=5.59D-08 NDo=     1
 Linear equations converged to 6.761D-09 6.761D-08 after    14 iterations.
     Minimum is close to point  2 DX=  4.87D-03 DF= -4.59D-10 DXR=  4.84D-03 DFR=  2.35D-05 which will be used.
 LinEq1:  Iter=  0 NonCon=     1 RMS=5.96D-07 Max=3.74D-05 NDo=     1
 LinEq1:  Iter=  1 NonCon=     1 RMS=1.36D-07 Max=2.88D-06 NDo=     1
 LinEq1:  Iter=  2 NonCon=     1 RMS=1.03D-07 Max=2.95D-06 NDo=     1
 LinEq1:  Iter=  3 NonCon=     1 RMS=4.59D-08 Max=5.66D-07 NDo=     1
 LinEq1:  Iter=  4 NonCon=     1 RMS=2.28D-08 Max=3.37D-07 NDo=     1
 LinEq1:  Iter=  5 NonCon=     1 RMS=1.29D-08 Max=4.32D-07 NDo=     1
 LinEq1:  Iter=  6 NonCon=     1 RMS=5.16D-09 Max=1.27D-07 NDo=     1
 LinEq1:  Iter=  7 NonCon=     1 RMS=2.67D-09 Max=5.29D-08 NDo=     1
 LinEq1:  Iter=  8 NonCon=     1 RMS=1.64D-09 Max=3.09D-08 NDo=     1
 LinEq1:  Iter=  9 NonCon=     1 RMS=8.45D-10 Max=1.10D-08 NDo=     1
 LinEq1:  Iter= 10 NonCon=     1 RMS=4.15D-10 Max=4.21D-09 NDo=     1
 LinEq1:  Iter= 11 NonCon=     1 RMS=1.20D-10 Max=1.22D-09 NDo=     1
 LinEq1:  Iter= 12 NonCon=     0 RMS=2.91D-11 Max=3.29D-10 NDo=     1
 Linear equations converged to 1.109D-10 1.109D-09 after    12 iterations.
 SCF Done:  E(UB3LYP) =  -268.973901481     a.u. after   27 cycles
            Convg  =    0.1778D-07                   121 Fock formations.
              S**2 =  0.7533                  -V/T =  2.0033
 <Sx>= 0.0000 <Sy>= 0.0000 <Sz>= 0.5000 <S**2>= 0.7533 S= 0.5017
 <L.S>=  0.00000000000    
 Annihilation of the first spin contaminant:
 S**2 before annihilation     0.7533,   after     0.7500
 Calling FoFJK, ICntrl=      2127 FMM=F ISym2X=0 I1Cent= 0 IOpClX= 1 NMat=1 NMatS=1 NMatT=0.
 ***** Axes restored to original set *****
 -------------------------------------------------------------------
 Center     Atomic                   Forces (Hartrees/Bohr)
 Number     Number              X              Y              Z
 -------------------------------------------------------------------
      1        6          -0.002767257   -0.006867984   -0.007052876
      2        1          -0.000323889    0.001311008    0.000095863
      3        1           0.000830905   -0.001976980    0.000162342
      4        1           0.000036685   -0.000104435    0.000038610
      5        6           0.004393427   -0.014211187    0.017059231
      6        1           0.000981535    0.007221469    0.002107387
      7        6           0.006579171    0.013021353    0.002284970
      8        1           0.001045042    0.000771742    0.004288157
      9        1          -0.003091602    0.001091055   -0.004144414
     10        8          -0.006085270    0.006741197   -0.013241950
     11        1          -0.000936170   -0.000751908   -0.000371588
     12        8          -0.000662576   -0.006245330   -0.001225731
 -------------------------------------------------------------------
 Cartesian Forces:  Max     0.017059231 RMS     0.005886154

 GradGradGradGradGradGradGradGradGradGradGradGradGradGradGradGradGradGrad
 Berny optimization.
 FormGI is forming the generalized inverse of G from B-inverse, IUseBI=4.
 Internal  Forces:  Max     0.014042668 RMS     0.003817253
 Search for a local minimum.
 Step number   1 out of a maximum of  100 on scan point     2 out of    25
 All quantities printed in internal units (Hartrees-Bohrs-Radians)
 Mixed Optimization -- RFO/linear search
 Second derivative matrix not updated -- first step.
 ITU=  0
     Eigenvalues ---    0.00434   0.01309   0.01715   0.04103   0.04491
     Eigenvalues ---    0.05600   0.05709   0.05993   0.07451   0.15686
     Eigenvalues ---    0.16000   0.16000   0.16000   0.16000   0.16000
     Eigenvalues ---    0.16000   0.20511   0.22134   0.29223   0.29883
     Eigenvalues ---    0.32736   0.33097   0.33461   0.34310   0.34320
     Eigenvalues ---    0.34695   0.41139   0.52054   0.550601000.00000
     Eigenvalues --- 1000.000001000.000001000.000001000.000001000.00000
     Eigenvalues --- 1000.000001000.000001000.000001000.000001000.00000
     Eigenvalues --- 1000.000001000.000001000.000001000.000001000.00000
     Eigenvalues --- 1000.000001000.000001000.000001000.000001000.00000
     Eigenvalues --- 1000.00000
 RFO step:  Lambda=-4.81700583D-03 EMin= 4.34290175D-03
 Linear search not attempted -- first point.
 Iteration  1 RMS(Cart)=  0.05601390 RMS(Int)=  0.00198996
 Iteration  2 RMS(Cart)=  0.00204771 RMS(Int)=  0.00055208
 Iteration  3 RMS(Cart)=  0.00000272 RMS(Int)=  0.00055207
 Iteration  4 RMS(Cart)=  0.00000000 RMS(Int)=  0.00055207
 Iteration  1 RMS(Cart)=  0.00002707 RMS(Int)=  0.00003035
 Iteration  2 RMS(Cart)=  0.00001665 RMS(Int)=  0.00003376
 Iteration  3 RMS(Cart)=  0.00001024 RMS(Int)=  0.00003860
 Iteration  4 RMS(Cart)=  0.00000630 RMS(Int)=  0.00004228
 Iteration  5 RMS(Cart)=  0.00000387 RMS(Int)=  0.00004474
 Iteration  6 RMS(Cart)=  0.00000238 RMS(Int)=  0.00004632
 Iteration  7 RMS(Cart)=  0.00000147 RMS(Int)=  0.00004731
 Iteration  8 RMS(Cart)=  0.00000090 RMS(Int)=  0.00004793
 Variable       Old X    -DE/DX   Delta X   Delta X   Delta X     New X
                                 (Linear)    (Quad)   (Total)
    R1        2.06173  -0.00002   0.00000  -0.00006  -0.00006   2.06166
    R2        2.06802  -0.00114   0.00000  -0.00329  -0.00329   2.06473
    R3        2.06818  -0.00004   0.00000  -0.00012  -0.00012   2.06806
    R4        2.88207  -0.00366   0.00000  -0.01205  -0.01205   2.87002
    R5        2.08252   0.00066   0.00000   0.00196   0.00196   2.08448
    R6        2.89553   0.00324   0.00000   0.01091   0.01091   2.90644
    R7        2.70129   0.00372   0.00000   0.00894   0.00894   2.71024
    R8        2.09536   0.00403   0.00000   0.01213   0.01213   2.10749
    R9        2.08885  -0.00295   0.00000  -0.00880  -0.00880   2.08005
   R10        2.58073  -0.00191   0.00000  -0.00364  -0.00364   2.57710
   R11        1.81786   0.00095   0.00000   0.00172   0.00172   1.81958
    A1        1.89782  -0.00000   0.00000  -0.00238  -0.00229   1.89552
    A2        1.89995  -0.00059   0.00000   0.00192   0.00183   1.90178
    A3        1.91323   0.00239   0.00000   0.01608   0.01607   1.92930
    A4        1.87785   0.00116   0.00000   0.00398   0.00393   1.88178
    A5        1.94239  -0.00304   0.00000  -0.02126  -0.02124   1.92115
    A6        1.93162   0.00008   0.00000   0.00170   0.00162   1.93325
    A7        1.92388   0.00065   0.00000  -0.01016  -0.00941   1.91448
    A8        1.97203   0.00093   0.00000  -0.00610  -0.00600   1.96603
    A9        2.05777  -0.01404   0.00000  -0.08548  -0.08496   1.97282
   A10        1.85762  -0.00162   0.00000   0.00590   0.00472   1.86234
   A11        1.83157   0.00648   0.00000   0.06841   0.06730   1.89887
   A12        1.80503   0.00906   0.00000   0.04094   0.03937   1.84441
   A13        1.87411   0.00194   0.00000   0.02107   0.02094   1.89505
   A14        1.96643  -0.00515   0.00000  -0.03650  -0.03681   1.92962
   A15        2.02800   0.00187   0.00000   0.00602   0.00535   2.03334
   A16        1.81840   0.00167   0.00000   0.01562   0.01594   1.83434
   A17        1.76569   0.00219   0.00000   0.02556   0.02505   1.79073
   A18        1.98229  -0.00123   0.00000  -0.01831  -0.01899   1.96331
   A19        1.88822   0.00146   0.00000   0.00885   0.00885   1.89708
    D1        3.09723  -0.00036   0.00000  -0.01251  -0.01285   3.08438
    D2        1.02136   0.00063   0.00000  -0.00899  -0.00854   1.01283
    D3       -1.08454  -0.00143   0.00000   0.00839   0.00813  -1.07641
    D4        0.99715   0.00001   0.00000  -0.00652  -0.00678   0.99037
    D5       -1.07872   0.00101   0.00000  -0.00300  -0.00246  -1.08118
    D6        3.09856  -0.00106   0.00000   0.01438   0.01420   3.11276
    D7       -1.09006   0.00049   0.00000   0.00128   0.00100  -1.08906
    D8        3.11726   0.00148   0.00000   0.00480   0.00531   3.12257
    D9        1.01135  -0.00058   0.00000   0.02218   0.02198   1.03333
   D10        1.27775   0.00477   0.00000   0.13068   0.13115   1.40890
   D11       -3.01327   0.00521   0.00000   0.14277   0.14276  -2.87050
   D12       -0.68298  -0.00024   0.00000   0.08185   0.08235  -0.60063
   D13       -0.83612   0.00450   0.00000   0.14299   0.14323  -0.69289
   D14        1.15605   0.00494   0.00000   0.15508   0.15485   1.31090
   D15       -2.79684  -0.00051   0.00000   0.09416   0.09443  -2.70241
   D16       -2.76100  -0.00573   0.00000   0.04883   0.04880  -2.71221
   D17       -0.76883  -0.00528   0.00000   0.06092   0.06041  -0.70842
   D18        1.56146  -0.01073   0.00000   0.00000  -0.00000   1.56145
   D19       -0.90186   0.00074   0.00000  -0.01064  -0.01003  -0.91190
   D20        1.24684  -0.00251   0.00000  -0.02557  -0.02758   1.21926
   D21       -3.09223   0.00150   0.00000   0.02113   0.02253  -3.06971
         Item               Value     Threshold  Converged?
 Maximum Force            0.009656     0.000450     NO 
 RMS     Force            0.002974     0.000300     NO 
 Maximum Displacement     0.161236     0.001800     NO 
 RMS     Displacement     0.056182     0.001200     NO 
 Predicted change in Energy=-2.735208D-03
 GradGradGradGradGradGradGradGradGradGradGradGradGradGradGradGradGradGrad

                          Input orientation:                          
 ---------------------------------------------------------------------
 Center     Atomic      Atomic             Coordinates (Angstroms)
 Number     Number       Type             X           Y           Z
 ---------------------------------------------------------------------
      1          6           0       -0.989657    1.210985   -0.141267
      2          1           0       -0.589591    1.346945   -1.147105
      3          1           0       -0.659448    2.046126    0.481061
      4          1           0       -2.082735    1.238804   -0.186526
      5          6           0       -0.508456   -0.102304    0.450603
      6          1           0       -0.872335   -0.198157    1.487494
      7          6           0        1.025416   -0.198463    0.509718
      8          1           0        1.382146    0.360125    1.406641
      9          1           0        1.341323   -1.239679    0.675993
     10          8           0       -0.939929   -1.246848   -0.298239
     11          1           0       -1.893983   -1.195672   -0.417824
     12          8           0        1.712203    0.399220   -0.505607
 ---------------------------------------------------------------------
                    Distance matrix (angstroms):
                    1          2          3          4          5
     1  C    0.000000
     2  H    1.090985   0.000000
     3  H    1.092607   1.773319   0.000000
     4  H    1.094368   1.778732   1.767254   0.000000
     5  C    1.518748   2.158606   2.153945   2.163992   0.000000
     6  H    2.156921   3.067311   2.468812   2.516400   1.103059
     7  C    2.543786   2.782373   2.806736   3.494439   1.538020
     8  H    2.957268   3.373896   2.804889   3.913523   2.168461
     9  H    3.479531   3.707120   3.851960   4.314046   2.183141
    10  O    2.463343   2.751558   3.395535   2.738057   1.434195
    11  H    2.585786   2.949270   3.583480   2.452713   1.967055
    12  O    2.844601   2.570595   3.051318   3.899778   2.469249
                    6          7          8          9         10
     6  H    0.000000
     7  C    2.134831   0.000000
     8  H    2.323983   1.115234   0.000000
     9  H    2.577515   1.100716   1.759229   0.000000
    10  O    2.071996   2.369491   3.298638   2.480583   0.000000
    11  H    2.380975   3.221437   4.059828   3.415491   0.962881
    12  O    3.318003   1.363740   1.940916   2.054196   3.128314
                   11         12
    11  H    0.000000
    12  O    3.944106   0.000000
 Stoichiometry    C3H7O2(2)
 Framework group  C1[X(C3H7O2)]
 Deg. of freedom    30
 Full point group                 C1      NOp   1
 Largest Abelian subgroup         C1      NOp   1
 Largest concise Abelian subgroup C1      NOp   1
                         Standard orientation:                         
 ---------------------------------------------------------------------
 Center     Atomic      Atomic             Coordinates (Angstroms)
 Number     Number       Type             X           Y           Z
 ---------------------------------------------------------------------
      1          6           0       -0.825697    1.313554   -0.046182
      2          1           0       -0.428838    1.472074   -1.049987
      3          1           0       -0.376881    2.048573    0.626202
      4          1           0       -1.906074    1.487489   -0.059319
      5          6           0       -0.512454   -0.092561    0.434771
      6          1           0       -0.867591   -0.218530    1.471471
      7          6           0        0.995950   -0.392767    0.444651
      8          1           0        1.439218    0.044539    1.369866
      9          1           0        1.173972   -1.475964    0.525709
     10          8           0       -1.104840   -1.110556   -0.383567
     11          1           0       -2.045650   -0.926070   -0.472907
     12          8           0        1.737971    0.185373   -0.542742
 ---------------------------------------------------------------------
 Rotational constants (GHZ):           7.0211192           4.1623654           3.1964284
 Standard basis: 6-311G(2d,d,p) (5D, 7F)
 There are   137 symmetry adapted cartesian basis functions of A   symmetry.
 There are   132 symmetry adapted basis functions of A   symmetry.
   132 basis functions,   216 primitive gaussians,   137 cartesian basis functions
    21 alpha electrons       20 beta electrons
       nuclear repulsion energy       185.0731568521 Hartrees.
 NAtoms=   12 NActive=   12 NUniq=   12 SFac= 1.00D+00 NAtFMM=   60 NAOKFM=F Big=F
 Integral buffers will be    131072 words long.
 Raffenetti 2 integral format.
 Two-electron integral symmetry is turned on.
 One-electron integrals computed using PRISM.
 NBasis=   132 RedAO= T EigKep=  2.14D-03  NBF=   132
 NBsUse=   132 1.00D-06 EigRej= -1.00D+00 NBFU=   132
 Initial guess from the checkpoint file:  "/rc_scratch/jasm3285/Gau-68651.chk"
 B after Tr=     0.000000    0.000000    0.000000
         Rot=    0.999767   -0.012930   -0.006754    0.015884 Ang=  -2.47 deg.
 Initial guess <Sx>= 0.0000 <Sy>= 0.0000 <Sz>= 0.5000 <S**2>= 0.7533 S= 0.5017
 ExpMin= 1.03D-01 ExpMax= 8.59D+03 ExpMxC= 1.30D+03 IAcc=2 IRadAn=         4 AccDes= 0.00D+00
 Harris functional with IExCor=  402 and IRadAn=       4 diagonalized for initial guess.
 HarFok:  IExCor=  402 AccDes= 0.00D+00 IRadAn=         4 IDoV= 1 UseB2=F ITyADJ=14
 ICtDFT=  3500011 ScaDFX=  1.000000  1.000000  1.000000  1.000000
 FoFCou: FMM=F IPFlag=           0 FMFlag=      100000 FMFlg1=           0
         NFxFlg=           0 DoJE=T BraDBF=F KetDBF=T FulRan=T
         wScrn=  0.000000 ICntrl=       500 IOpCl=  0 I1Cent=   200000004 NGrid=           0
         NMat0=    1 NMatS0=      1 NMatT0=    0 NMatD0=    1 NMtDS0=    0 NMtDT0=    0
 Petite list used in FoFCou.
 Keep R1 and R2 ints in memory in canonical form, NReq=78377335.
 Gradient too large for Newton-Raphson -- use scaled steepest descent instead.
     Accept linear search using points  3 and  4.
 Gradient too large for Newton-Raphson -- use scaled steepest descent instead.
 Gradient too large for Newton-Raphson -- use scaled steepest descent instead.
     Minimum is close to point  3 DX= -3.11D-03 DF= -1.16D-08 DXR=  7.83D-03 DFR=  6.13D-05 which will be used.
 Gradient too large for Newton-Raphson -- use scaled steepest descent instead.
     Accept linear search using points  1 and  2.
 Gradient too large for Newton-Raphson -- use scaled steepest descent instead.
     Accept linear search using points  3 and  4.
     Minimum is close to point  4 DX= -3.46D-02 DF= -1.22D-07 DXR=  2.21D-02 DFR=  3.02D-04 which will be used.
 Gradient too large for Newton-Raphson -- use scaled steepest descent instead.
 Gradient too large for Newton-Raphson -- use scaled steepest descent instead.
 Gradient too large for Newton-Raphson -- use scaled steepest descent instead.
     Minimum is close to point  2 DX= -1.59D-02 DF= -1.71D-07 DXR=  8.66D-02 DFR=  7.55D-03 which will be used.
 Gradient too large for Newton-Raphson -- use scaled steepest descent instead.
     Accept linear search using points  1 and  2.
 Gradient too large for Newton-Raphson -- use scaled steepest descent instead.
 Gradient too large for Newton-Raphson -- use scaled steepest descent instead.
 LinEq1:  Iter=  0 NonCon=     1 RMS=1.10D-04 Max=3.17D-03 NDo=     1
 AX will form     1 AO Fock derivatives at one time.
 LinEq1:  Iter=  1 NonCon=     1 RMS=4.39D-05 Max=1.54D-03 NDo=     1
 LinEq1:  Iter=  2 NonCon=     1 RMS=4.91D-05 Max=1.99D-03 NDo=     1
 LinEq1:  Iter=  3 NonCon=     1 RMS=1.72D-05 Max=4.12D-04 NDo=     1
 LinEq1:  Iter=  4 NonCon=     1 RMS=1.18D-05 Max=2.70D-04 NDo=     1
 LinEq1:  Iter=  5 NonCon=     1 RMS=5.55D-06 Max=1.07D-04 NDo=     1
 LinEq1:  Iter=  6 NonCon=     1 RMS=2.09D-06 Max=4.67D-05 NDo=     1
 LinEq1:  Iter=  7 NonCon=     1 RMS=6.47D-07 Max=1.10D-05 NDo=     1
 LinEq1:  Iter=  8 NonCon=     1 RMS=2.85D-07 Max=3.10D-06 NDo=     1
 LinEq1:  Iter=  9 NonCon=     1 RMS=1.97D-07 Max=5.26D-06 NDo=     1
 LinEq1:  Iter= 10 NonCon=     1 RMS=9.22D-08 Max=8.86D-07 NDo=     1
 LinEq1:  Iter= 11 NonCon=     1 RMS=4.77D-08 Max=8.32D-07 NDo=     1
 LinEq1:  Iter= 12 NonCon=     1 RMS=1.64D-08 Max=1.91D-07 NDo=     1
 LinEq1:  Iter= 13 NonCon=     0 RMS=4.91D-09 Max=4.37D-08 NDo=     1
 Linear equations converged to 6.761D-09 6.761D-08 after    13 iterations.
[...]
  Beta virt. eigenvalues --    3.50598   3.53580   3.56381   3.61984   3.64915
  Beta virt. eigenvalues --    3.67872   3.71614   3.74460   3.80186   3.81362
  Beta virt. eigenvalues --    3.84983   3.86167   3.89200   3.91930   3.94978
  Beta virt. eigenvalues --    3.97640   4.03266   4.05544   4.09283   4.11230
  Beta virt. eigenvalues --    4.11608   4.15660   4.18672   4.23718   4.27775
  Beta virt. eigenvalues --    4.32555   4.34518   4.36138   4.40228   4.44130
  Beta virt. eigenvalues --    4.49924   4.52420   4.55577   4.57998   4.59960
  Beta virt. eigenvalues --    4.60350   4.64229   4.66635   4.70803   4.74607
  Beta virt. eigenvalues --    4.76159   4.81436   4.85558   4.88515   4.92764
  Beta virt. eigenvalues --    4.96028   4.97901   5.03345   5.21942   5.47648
  Beta virt. eigenvalues --    5.50528   5.61370   5.64495   5.65017   5.67384
  Beta virt. eigenvalues --    5.70389   5.71269   5.74204   5.76104   5.82379
  Beta virt. eigenvalues --    5.85212   5.88145   5.95448   5.99521   6.02324
  Beta virt. eigenvalues --    6.04804   6.08227   6.12238   6.27486   6.33046
  Beta virt. eigenvalues --    6.44320   6.48705   7.01306   7.17985   7.39627
  Beta virt. eigenvalues --    7.42481   7.54048   7.74907   7.75468   7.78909
  Beta virt. eigenvalues --    7.82972   7.84851   8.09343   8.14602   8.23633
  Beta virt. eigenvalues --   25.39880  25.51565  25.58830  51.67086  51.75683
          Condensed to atoms (all electrons):
               1          2          3          4          5          6
     1  C    4.863315   0.452606   0.401505   0.371797   0.249651  -0.000435
     2  H    0.452606   0.565160  -0.031507  -0.031488  -0.066552   0.000005
     3  H    0.401505  -0.031507   0.626131  -0.033660  -0.017252  -0.003446
     4  H    0.371797  -0.031488  -0.033660   0.658130   0.010429  -0.010587
     5  C    0.249651  -0.066552  -0.017252   0.010429   4.844126   0.423581
     6  H   -0.000435   0.000005  -0.003446  -0.010587   0.423581   0.643878
     7  C    0.026080  -0.008324   0.004601  -0.002873   0.272680  -0.048902
     8  H   -0.006199   0.002822  -0.004683   0.000746  -0.038535  -0.004225
     9  H   -0.003555   0.000379   0.000709  -0.000601  -0.049892  -0.002541
    10  O   -0.069936  -0.002590   0.004880  -0.007861   0.287741  -0.046528
    11  H   -0.024346  -0.002343   0.001419   0.000795   0.020311  -0.000257
    12  O   -0.028464   0.006830  -0.004885   0.001630  -0.048499   0.007885
               7          8          9         10         11         12
     1  C    0.026080  -0.006199  -0.003555  -0.069936  -0.024346  -0.028464
     2  H   -0.008324   0.002822   0.000379  -0.002590  -0.002343   0.006830
     3  H    0.004601  -0.004683   0.000709   0.004880   0.001419  -0.004885
     4  H   -0.002873   0.000746  -0.000601  -0.007861   0.000795   0.001630
     5  C    0.272680  -0.038535  -0.049892   0.287741   0.020311  -0.048499
     6  H   -0.048902  -0.004225  -0.002541  -0.046528  -0.000257   0.007885
     7  C    4.934544   0.435222   0.434442  -0.156626  -0.006082   0.194550
     8  H    0.435222   0.600596  -0.030374   0.012770  -0.001606  -0.049227
     9  H    0.434442  -0.030374   0.592220  -0.007614   0.000965  -0.036273
    10  O   -0.156626   0.012770  -0.007614   8.082406   0.246487   0.011561
    11  H   -0.006082  -0.001606   0.000965   0.246487   0.503082  -0.001725
    12  O    0.194550  -0.049227  -0.036273   0.011561  -0.001725   8.097240
          Atomic-Atomic Spin Densities.
               1          2          3          4          5          6
     1  C    0.014108   0.000313  -0.001609  -0.001048  -0.015288   0.003778
     2  H    0.000313   0.000461   0.000112  -0.000106   0.000024  -0.000220
     3  H   -0.001609   0.000112   0.000724  -0.000102   0.001839  -0.000260
     4  H   -0.001048  -0.000106  -0.000102   0.000497   0.001419  -0.000131
     5  C   -0.015288   0.000024   0.001839   0.001419   0.012421  -0.002840
     6  H    0.003778  -0.000220  -0.000260  -0.000131  -0.002840  -0.002914
     7  C    0.000452   0.000339  -0.000975  -0.000575   0.017216   0.001892
     8  H   -0.015479   0.000193   0.000733   0.000664   0.024310  -0.003198
     9  H    0.008610  -0.000316  -0.000361  -0.000202   0.002953   0.001868
    10  O   -0.003548   0.000156  -0.000007   0.000251  -0.000543  -0.000553
    11  H   -0.000176   0.000067   0.000037  -0.000044  -0.000421   0.000198
    12  O    0.014723  -0.001918  -0.000429  -0.000900  -0.042396  -0.000207
               7          8          9         10         11         12
     1  C    0.000452  -0.015479   0.008610  -0.003548  -0.000176   0.014723
     2  H    0.000339   0.000193  -0.000316   0.000156   0.000067  -0.001918
     3  H   -0.000975   0.000733  -0.000361  -0.000007   0.000037  -0.000429
     4  H   -0.000575   0.000664  -0.000202   0.000251  -0.000044  -0.000900
     5  C    0.017216   0.024310   0.002953  -0.000543  -0.000421  -0.042396
     6  H    0.001892  -0.003198   0.001868  -0.000553   0.000198  -0.000207
     7  C   -0.136197  -0.002058   0.002514  -0.001129   0.000514   0.008869
     8  H   -0.002058   0.120191  -0.030360   0.002321   0.000338  -0.022388
     9  H    0.002514  -0.030360   0.084173  -0.003803  -0.000241  -0.012910
    10  O   -0.001129   0.002321  -0.003803   0.005530  -0.000195   0.002456
    11  H    0.000514   0.000338  -0.000241  -0.000195  -0.000204   0.000482
    12  O    0.008869  -0.022388  -0.012910   0.002456   0.000482   1.035794
 Mulliken charges and spin densities:
               1          2
     1  C   -0.232017   0.004836
     2  H    0.115002  -0.000894
     3  H    0.056187  -0.000298
     4  H    0.043542  -0.000276
     5  C    0.112211  -0.001307
     6  H    0.041571  -0.002587
     7  C   -0.079312  -0.109137
     8  H    0.082694   0.075268
     9  H    0.102136   0.051926
    10  O   -0.354691   0.000935
    11  H    0.263301   0.000355
    12  O   -0.150624   0.981177
 Sum of Mulliken charges =   0.00000   1.00000
 Mulliken charges and spin densities with hydrogens summed into heavy atoms:
               1          2
     1  C   -0.017286   0.003368
     5  C    0.153782  -0.003894
     7  C    0.105518   0.018058
    10  O   -0.091389   0.001291
    12  O   -0.150624   0.981177
 Electronic spatial extent (au):  <R**2>=            432.7712
 Charge=              0.0000 electrons
 Dipole moment (field-independent basis, Debye):
    X=             -1.9370    Y=              0.8940    Z=              2.0952  Tot=              2.9902
 Quadrupole moment (field-independent basis, Debye-Ang):
   XX=            -29.4970   YY=            -32.7022   ZZ=            -31.2940
   XY=             -0.2311   XZ=              2.9870   YZ=             -0.0911
 Traceless Quadrupole moment (field-independent basis, Debye-Ang):
   XX=              1.6674   YY=             -1.5378   ZZ=             -0.1296
   XY=             -0.2311   XZ=              2.9870   YZ=             -0.0911
 Octapole moment (field-independent basis, Debye-Ang**2):
  XXX=            -15.5188  YYY=              0.0297  ZZZ=             -1.3164  XYY=              2.7498
  XXY=             -7.1907  XXZ=              1.0799  XZZ=              0.1512  YZZ=             -1.0831
  YYZ=              0.2484  XYZ=              0.0168
 Hexadecapole moment (field-independent basis, Debye-Ang**3):
 XXXX=           -267.7189 YYYY=           -182.3151 ZZZZ=            -88.9350 XXXY=             16.5477
 XXXZ=             12.0250 YYYX=              5.4682 YYYZ=              1.8783 ZZZX=             -0.7198
 ZZZY=              0.8901 XXYY=            -68.9601 XXZZ=            -61.0394 YYZZ=            -43.5345
 XXYZ=              4.6014 YYXZ=              1.4202 ZZXY=              2.9748
 N-N= 1.855990871399D+02 E-N=-1.000472470552D+03  KE= 2.672093407697D+02
 1\1\GINC-BNODE0305\SP\UMP2-FC\CBSB3\C3H7O2(2)\JASM3285\13-Feb-2018\0\\
 #N Geom=AllCheck Guess=TCheck SCRF=Check MP2/CBSB3 CBSExtrap=(NMin=10,
 MinPop)\\Title Card Required\\0,2\C,0,-1.0255429937,0.4916903803,-0.80
 85828538\H,0,-0.8481601882,-0.4359821033,-1.354726821\H,0,-0.569580193
 8,1.318181356,-1.3622165395\H,0,-2.1033285888,0.6767658333,-0.76616401
 14\C,0,-0.4430438363,0.3782907342,0.5963216984\H,0,-0.5740467087,1.331
 9956802,1.1327109713\C,0,1.0560300501,0.0618883185,0.5836872617\H,0,1.
 6391217442,0.956843099,0.2865595742\H,0,1.3989989453,-0.1584715174,1.6
 11128152\O,0,-1.0493736772,-0.6822548084,1.3376937489\H,0,-2.003642396
 5,-0.5667924684,1.3009770399\O,0,1.4475228435,-0.9510735038,-0.2424462
 206\\Version=ES64L-G16RevA.03\State=2-A\HF=-267.4448251\MP2=-268.38045
 29\E2(CBS)=-1.0316737\CBS-Int=-1.0010086\OIii=8.2800476\PUHF=-267.4487
 936\PMP2-0=-268.3828751\S2=0.759982\S2-1=0.752167\S2A=0.750078\RMSD=3.
 297e-09\PG=C01 [X(C3H7O2)]\\@


 REPARTEE - WHAT YOU THINK OF AFTER YOU BECOME A DEPARTEE.
 Diagonal vibrational polarizability:
        0.0000000       0.0000000       0.0000000

 Complete Basis Set (CBS) Extrapolation:
 M. R. Nyden and G. A. Petersson, JCP 75, 1843 (1981)
 G. A. Petersson and M. A. Al-Laham, JCP 94, 6081 (1991)
 G. A. Petersson, T. Tensfeldt, and J. A. Montgomery, JCP 94, 6091 (1991)
 J. A. Montgomery, J. W. Ochterski, and G. A. Petersson, JCP 101, 5900 (1994)

 Temperature=               298.150000 Pressure=                       1.000000
 E(ZPE)=                      0.097107 E(Thermal)=                     0.103400
 E(SCF)=                   -267.444825 DE(MP2)=                       -0.935628
 DE(CBS)=                    -0.096046 DE(MP34)=                      -0.053736
 DE(CCSD)=                   -0.023490 DE(Int)=                        0.030665
 DE(Empirical)=              -0.048037
 CBS-QB3 (0 K)=            -268.473990 CBS-QB3 Energy=              -268.467697
 CBS-QB3 Enthalpy=         -268.466753 CBS-QB3 Free Energy=         -268.503776
 1\1\GINC-BNODE0305\Mixed\CBS-QB3\CBS-QB3\C3H7O2(2)\JASM3285\13-Feb-201
 8\0\\# opt=(modredundant,noeigentest) cbs-qb3 scf=qc geom=connectivity
  ccsd=maxcyc=1000 optcyc=100\\Title Card Required\\0,2\C,0,-1.02554299
 37,0.4916903803,-0.8085828538\H,0,-0.8481601882,-0.4359821033,-1.35472
 6821\H,0,-0.5695801938,1.318181356,-1.3622165395\H,0,-2.1033285888,0.6
 767658333,-0.7661640114\C,0,-0.4430438363,0.3782907342,0.5963216984\H,
 0,-0.5740467087,1.3319956802,1.1327109713\C,0,1.0560300501,0.061888318
 5,0.5836872617\H,0,1.6391217442,0.956843099,0.2865595742\H,0,1.3989989
 453,-0.1584715174,1.611128152\O,0,-1.0493736772,-0.6822548084,1.337693
 7489\H,0,-2.0036423965,-0.5667924684,1.3009770399\O,0,1.4475228435,-0.
 9510735038,-0.2424462206\\Version=ES64L-G16RevA.03\State=2-A\HF/CbsB3=
 -267.4448251\E2(CBS)/CbsB3=-1.0316737\CBS-Int/CbsB3=0.0306651\OIii/Cbs
 B3=8.2800476\MP2/CbsB4=-268.1443358\MP4(SDQ)/CbsB4=-268.1980722\MP4(SD
 Q)/6-31+G(d')=-268.1333086\QCISD(T)/6-31+G(d')=-268.156799\CBSQB3=-268
 .4739899\FreqCoord=-1.937995387,0.9291601568,-1.5280001426,-1.60279046
 54,-0.8238867705,-2.5600626653,-1.0763505722,2.4910017453,-2.574216182
 1,-3.9747149827,1.2789020754,-1.447840148,-0.8372315118,0.7148658831,1
 .1268846922,-1.0847910621,2.5171070346,2.140513514,1.9956075741,0.1169
 519722,1.103009067,3.0974911814,1.8081714014,0.5415191135,2.6437248551
 ,-0.2994677665,3.0445909589,-1.9830288522,-1.289274735,2.5278748239,-3
 .7863353809,-1.0710825348,2.4584902997,2.7354217332,-1.7972684466,-0.4
 581569569\PG=C01 [X(C3H7O2)]\NImag=0\\0.55508907,0.00183787,0.57537976
 ,-0.03613172,0.00635171,0.47730408,-0.05478590,0.03890693,0.02311068,0
 .05591343,0.03689901,-0.24192903,-0.11313299,-0.04152332,0.26038933,0.
 02271844,-0.11056214,-0.11143331,-0.02259246,0.12411922,0.12241810,-0.
 09273357,-0.08342860,0.05384850,0.00183557,0.00439776,-0.00376636,0.09
 760654,-0.08265591,-0.19486846,0.09780924,-0.01209083,-0.01852868,0.01
 457785,0.09168332,0.20949038,0.05264396,0.09655652,-0.11246190,-0.0080
 8720,-0.01164642,0.00921439,-0.05875459,-0.10925333,0.12028198,-0.2960
 5313,0.04351117,0.01301770,-0.00428991,0.00044615,0.00032914,-0.012797
 00,0.00228977,0.00069351,0.32299091,0.04326741,-0.05439026,-0.00275431
 ,0.02725515,-0.00298043,-0.00031037,-0.02458029,0.00450775,0.00033640,
 -0.04765914,0.05392357,0.01438589,-0.00216319,-0.04727592,0.01582019,-
 0.00079139,-0.00131465,0.01612346,-0.00389625,-0.00118642,-0.01257635,
 0.00167048,0.05142764,-0.09971669,-0.00120704,-0.03558966,0.00241587,-
 0.00242848,0.00322271,0.00479577,-0.00026260,0.01627154,-0.01416806,0.
 00069671,-0.03409179,0.49513119,0.00520778,-0.07795605,-0.00411025,-0.
 01361035,0.00056928,-0.02960590,0.01019852,-0.00283677,0.02295745,0.00
 116179,-0.00149492,0.00658154,-0.01638387,0.53159509,-0.04581454,-0.00
 918671,-0.16635938,-0.00670455,0.00137447,-0.01843578,-0.00364337,-0.0
 0112121,-0.00934218,0.00245103,-0.00009355,0.00022497,0.00741979,0.067
 49756,0.48665774,0.00280974,-0.01156301,-0.00963612,-0.00066522,0.0003
 3172,-0.00292595,0.00036407,0.00037574,0.00023040,0.00062389,-0.000514
 83,0.00087385,-0.06026993,0.03258151,0.01489388,0.06204727,0.00093017,
 0.00372326,0.00066330,0.00054411,0.00102281,0.00111916,-0.00018269,0.0
 0036830,-0.00128290,-0.00043011,-0.00002304,-0.00013312,0.03107515,-0.
 20995155,-0.10374974,-0.02712651,0.24406832,0.00458857,-0.02627095,-0.
 01692206,-0.00295048,0.00080450,-0.00535363,0.00050556,0.00046398,0.00
 060673,-0.00044391,0.00037757,0.00143013,0.01744546,-0.10344021,-0.112
 09206,-0.01908464,0.10527708,0.12220092,-0.01788330,0.00473199,-0.0103
 2477,0.00056926,0.00122831,0.00184807,0.00024971,-0.00092502,0.0008196
 1,0.00112097,0.00070313,-0.00005068,-0.16806759,0.00836214,-0.00801865
 ,-0.00097120,-0.00012666,-0.00134351,0.48511947,0.00301734,-0.00129620
 ,0.00292170,-0.00038214,0.00124306,-0.00127905,0.00040888,-0.00036616,
 -0.00015848,-0.00043878,0.00047297,0.00054666,0.01676134,-0.06010468,-
 0.01792211,0.02457420,-0.00535387,-0.00010064,0.00698076,0.41035471,-0
 .03170933,0.00857341,0.00133378,-0.00039071,-0.00344570,0.00078038,0.0
 0005702,0.00085314,0.00078542,-0.00236260,-0.00053234,-0.00703599,-0.0
 1524033,-0.01446808,-0.06143511,0.01819156,-0.00381374,-0.00078867,-0.
 00149632,0.01301528,0.42311004,0.00091938,0.00008584,0.00074444,-0.000
 14065,-0.00021648,-0.00014958,-0.00025292,0.00045342,-0.00072950,0.000
 19299,0.00015097,-0.00017537,-0.01071963,-0.02560688,0.00903699,0.0009
 9218,0.00052836,0.00042489,-0.11139640,-0.08145453,0.04147333,0.116919
 91,-0.00043894,-0.00050647,0.00020388,0.00010173,0.00027380,0.00001209
 ,0.00012562,0.00021547,-0.00006088,-0.00013709,0.00010048,-0.00019373,
 0.00302032,0.00572244,-0.00207919,-0.00050900,0.00053912,-0.00012615,-
 0.09906006,-0.18092381,0.06916623,0.10475913,0.21377800,-0.00090167,-0
 .00086260,0.00036874,0.00016739,0.00065901,-0.00022564,-0.00013232,-0.
 00010701,-0.00003314,-0.00000361,0.00015458,0.00001461,-0.00381027,0.0
 0521132,-0.00678946,0.00043394,-0.00032689,-0.00000206,0.03647891,0.03
 801835,-0.02806140,-0.04015257,-0.05580321,0.05382115,-0.00651381,0.00
 064233,0.00238614,0.00001108,0.00008671,-0.00011598,0.00026570,0.00008
 098,0.00026401,-0.00087274,0.00001903,-0.00199517,-0.01083357,0.009390
 24,-0.03295746,0.00089917,-0.00003570,0.00051900,-0.07187110,0.0240806
 9,-0.05251195,0.00404983,-0.00593949,0.01062882,0.07289738,0.00221430,
 0.00061508,-0.00057584,0.00002236,-0.00069512,0.00011484,-0.00018667,0
 .00024094,-0.00034824,0.00046394,0.00011135,0.00026864,0.00080564,-0.0
 0474881,0.01229283,0.00003690,-0.00016673,-0.00001253,0.02233494,-0.03
 270101,0.03153543,0.00468929,-0.00317074,0.02957097,-0.02201117,0.0526
 5652,0.00025185,0.00063566,0.00106105,0.00018303,-0.00027678,0.0000573
 3,0.00005020,0.00003558,0.00002444,0.00002517,-0.00019719,-0.00008012,
 0.00058750,0.00124724,-0.00004524,-0.00078737,0.00030888,0.00027902,-0
 .07163960,0.06113867,-0.23611014,-0.00334717,0.00463730,-0.00750292,0.
 07262144,-0.04806095,0.27175480,0.00385225,0.00529456,-0.00118931,-0.0
 0006746,0.00017171,0.00070851,0.00085100,0.00022074,-0.00205494,0.0028
 7842,0.00019396,-0.00002299,-0.11003210,-0.05447445,0.03916978,0.00194
 846,-0.00825951,0.00058192,-0.03031111,-0.02961332,0.01878269,-0.00816
 269,0.00150932,0.00295305,0.00354784,-0.00261570,-0.00005581,0.6383072
 7,-0.00919802,-0.01157744,0.01459184,0.00042750,0.00188131,0.00107012,
 0.00154936,0.00182773,0.00282212,0.00012828,-0.00015795,-0.00228487,-0
 .01418438,-0.15303660,0.05589240,-0.02184888,-0.03433550,0.02422109,-0
 .00477047,-0.00232579,0.00498914,0.00090974,0.00004632,-0.00104856,-0.
 00029193,0.00090006,-0.00035529,0.00083674,0.23230241,0.02046607,0.038
 52039,-0.02509693,0.00105366,-0.00028278,0.00388186,-0.00369539,0.0014
 9657,-0.00856656,0.00036833,-0.00039503,0.00305971,0.00701352,0.055129
 88,-0.10026302,-0.00216730,0.00255426,0.00931809,0.00751311,0.00500440
 ,-0.00144005,-0.00022505,-0.00035345,0.00017683,0.00003816,-0.00085564
 ,0.00075248,-0.01997500,-0.12257657,0.13500863,0.00342747,0.00173938,-
 0.00069671,-0.00016042,-0.00015159,0.00018112,-0.00009229,0.00014858,-
 0.00111892,0.00004813,0.00015324,0.00095836,-0.01919450,0.00536213,-0.
 00284194,0.00091634,0.00097706,-0.00096182,-0.00094099,-0.00426949,0.0
 0154256,-0.00105326,0.00047900,0.00059186,0.00052869,-0.00013795,0.000
 13915,-0.50609683,0.04734499,-0.01002126,0.52195033,-0.00036202,0.0011
 6844,-0.00020263,0.00045725,-0.00020815,-0.00022529,0.00013535,-0.0002
 3080,-0.00031166,0.00083226,-0.00003096,0.00066540,-0.03633319,-0.0010
 8044,0.00239701,-0.00075825,0.00010419,-0.00048604,-0.00179860,-0.0023
 1410,0.00084199,-0.00122115,0.00058159,0.00072477,0.00006637,-0.000624
 28,-0.00039299,0.09012181,-0.03947554,0.02138419,-0.05119238,0.0428308
 3,0.00219368,-0.00110888,0.00091632,0.00023433,-0.00015092,-0.00040293
 ,-0.00068871,-0.00027117,0.00048789,-0.00115531,0.00080475,-0.00043698
 ,0.02524517,-0.00154223,-0.00174952,-0.00094428,0.00016996,0.00043078,
 0.00126711,0.00424802,-0.00208062,0.00129205,-0.00006978,0.00047673,0.
 00024602,0.00007910,0.00004213,-0.03973035,0.02369444,-0.01722437,0.01
 246674,-0.02515376,0.01946715,0.00158848,-0.00055141,0.00046082,-0.000
 63566,0.00075850,0.00054232,-0.00009260,0.00068182,-0.00017788,0.00032
 552,0.00031466,0.00075059,-0.00934076,0.03781145,0.02700905,-0.0086947
 7,0.00210633,0.00071896,-0.08561771,0.04033504,0.02366410,0.00865125,-
 0.00391054,-0.00625354,0.00789152,-0.00561587,0.00197160,0.00328496,-0
 .00090292,-0.00036885,0.00066732,0.00005255,-0.00042647,0.08197245,-0.
 00071898,0.00163736,-0.00176565,-0.00010838,-0.00103820,0.00096946,-0.
 00012056,0.00018029,0.00038943,-0.00016823,-0.00003856,-0.00027017,0.0
 1844040,-0.02667701,-0.00530176,0.00442042,0.00000468,-0.00070771,0.06
 233953,-0.12668513,-0.10671476,-0.00307771,-0.03665620,-0.01619073,-0.
 00608806,-0.01241727,-0.01872012,-0.00338586,0.00395099,0.00037378,-0.
 00045295,-0.00072078,-0.00069951,-0.07107962,0.19845982,-0.00269121,-0
 .00048321,-0.00143447,0.00015613,0.00276979,0.00081389,0.00009600,-0.0
 0058740,0.00018935,-0.00034311,0.00093902,0.00117301,0.01152635,-0.005
 45834,-0.01037096,0.00092203,-0.00078623,0.00089280,0.04494671,-0.1054
 3280,-0.08905764,-0.00819246,-0.01533311,-0.01224345,0.00087698,-0.024
 00861,-0.03023283,0.00083243,-0.00101586,0.00039333,-0.00023915,0.0007
 5902,0.00007340,-0.04789071,0.14863774,0.13980357\\-0.00000038,-0.0000
 0898,-0.00001128,0.00000343,0.00000111,-0.00000229,0.00000207,0.000000
 99,-0.00000204,0.00000439,0.00000289,0.00000245,0.00002771,-0.00000446
 ,0.00001038,0.00000299,-0.00000057,0.00000076,-0.00000661,0.00003914,-
 0.00001416,-0.00000423,-0.00000083,0.00000511,0.00000742,-0.00000164,-
 0.00000081,-0.00003772,-0.00001111,0.00001544,-0.00000214,-0.00000296,
 0.00000226,0.00000307,-0.00001358,-0.00000581\\\@
 Job cpu time:       0 days  0 hours  4 minutes 15.4 seconds.
 Elapsed time:       0 days  0 hours  4 minutes 17.7 seconds.
 File lengths (MBytes):  RWF=   2667 Int=      0 D2E=      0 Chk=      8 Scr=      2
 Normal termination of Gaussian 16 at Tue Feb 13 00:40:12 2018.
