 Entering Gaussian System, Link 0=g16
 Input=D4.gjf
 Output=D4.log
 Initial command:
 /curc/sw/gaussian/16/g16/l1.exe "/scratch/summit/mial5369/7589196/Gau-15773.inp" -scrdir="/scratch/summit/mial5369/7589196/"
 Default is to use a total of  12 processors:
                               12 via shared-memory
                                1 via Linda
 Entering Link 1 = /curc/sw/gaussian/16/g16/l1.exe PID=     15776.
  
 Copyright (c) 1988,1990,1992,1993,1995,1998,2003,2009,2016,
            Gaussian, Inc.  All Rights Reserved.
  
 This is part of the Gaussian(R) 16 program.  It is based on
 the Gaussian(R) 09 system (copyright 2009, Gaussian, Inc.),
 the Gaussian(R) 03 system (copyright 2003, Gaussian, Inc.),
 the Gaussian(R) 98 system (copyright 1998, Gaussian, Inc.),
 the Gaussian(R) 94 system (copyright 1995, Gaussian, Inc.),
 the Gaussian 92(TM) system (copyright 1992, Gaussian, Inc.),
 the Gaussian 90(TM) system (copyright 1990, Gaussian, Inc.),
 the Gaussian 88(TM) system (copyright 1988, Gaussian, Inc.),
 the Gaussian 86(TM) system (copyright 1986, Carnegie Mellon
 University), and the Gaussian 82(TM) system (copyright 1983,
 Carnegie Mellon University). Gaussian is a federally registered
 trademark of Gaussian, Inc.
  
 This software contains proprietary and confidential information,
 including trade secrets, belonging to Gaussian, Inc.
  
 This software is provided under written license and may be
 used, copied, transmitted, or stored only in accord with that
 written license.
  
 The following legend is applicable only to US Government
 contracts under FAR:
  
                    RESTRICTED RIGHTS LEGEND
  
 Use, reproduction and disclosure by the US Government is
 subject to restrictions as set forth in subparagraphs (a)
 and (c) of the Commercial Computer Software - Restricted
 Rights clause in FAR 52.227-19.
  
 Gaussian, Inc.
 340 Quinnipiac St., Bldg. 40, Wallingford CT 06492
  
  
 ---------------------------------------------------------------
 Warning -- This program may not be used in any manner that
 competes with the business of Gaussian, Inc. or will provide
 assistance to any competitor of Gaussian, Inc.  The licensee
 of this program is prohibited from giving any competitor of
 Gaussian, Inc. access to this program.  By using this program,
 the user acknowledges that Gaussian, Inc. is engaged in the
 business of creating and licensing software in the field of
 computational chemistry and represents and warrants to the
 licensee that it is not a competitor of Gaussian, Inc. and that
 it will not use this program in any manner prohibited above.
 ---------------------------------------------------------------
  

 Cite this work as:
 Gaussian 16, Revision A.03,
 M. J. Frisch, G. W. Trucks, H. B. Schlegel, G. E. Scuseria, 
 M. A. Robb, J. R. Cheeseman, G. Scalmani, V. Barone, 
 G. A. Petersson, H. Nakatsuji, X. Li, M. Caricato, A. V. Marenich, 
 J. Bloino, B. G. Janesko, R. Gomperts, B. Mennucci, H. P. Hratchian, 
 J. V. Ortiz, A. F. Izmaylov, J. L. Sonnenberg, D. Williams-Young, 
 F. Ding, F. Lipparini, F. Egidi, J. Goings, B. Peng, A. Petrone, 
 T. Henderson, D. Ranasinghe, V. G. Zakrzewski, J. Gao, N. Rega, 
 G. Zheng, W. Liang, M. Hada, M. Ehara, K. Toyota, R. Fukuda, 
 J. Hasegawa, M. Ishida, T. Nakajima, Y. Honda, O. Kitao, H. Nakai, 
 T. Vreven, K. Throssell, J. A. Montgomery, Jr., J. E. Peralta, 
 F. Ogliaro, M. J. Bearpark, J. J. Heyd, E. N. Brothers, K. N. Kudin, 
 V. N. Staroverov, T. A. Keith, R. Kobayashi, J. Normand, 
 K. Raghavachari, A. P. Rendell, J. C. Burant, S. S. Iyengar, 
 J. Tomasi, M. Cossi, J. M. Millam, M. Klene, C. Adamo, R. Cammi, 
 J. W. Ochterski, R. L. Martin, K. Morokuma, O. Farkas, 
 J. B. Foresman, and D. J. Fox, Gaussian, Inc., Wallingford CT, 2016.
 
 ******************************************
 Gaussian 16:  ES64L-G16RevA.03 25-Dec-2016
                15-Jun-2021 
 ******************************************
 %nprocshared=12
 Will use up to   12 processors via shared memory.
 %mem=50GB
 -----------------------------------------
 # ccsd/cc-pvdz pop=full geom=connectivity
 -----------------------------------------
 1/38=1,57=2,172=1/1;
 2/12=2,17=6,18=5,40=1/2;
 3/5=16,11=9,25=1,30=1/1,2,3;
 4//1;
 5/5=2,38=5/2;
 8/6=4,9=120000,10=1/1,4;
 9/5=7/13;
 6/7=3/1;
 99/5=1,9=1/99;
 --
 D4
 --
 Symbolic Z-matrix:
 Charge =  0 Multiplicity = 1
 O                    -1.34453   1.29077  -0.29555 
 O                     1.33912   1.29668  -0.29788 
 O                     1.34369  -1.32359   0.29866 
 O                    -1.34     -1.33138   0.2933 
 Si                   -2.28187  -0.00894   0.05694 
 Si                    2.28121   0.00108   0.0573 
 Si                   -0.00464   2.22359  -0.13543 
 Si                    0.00498  -2.23088   0.02116 
 C                    -3.23005   0.30654   1.63568 
 H                    -3.8731    1.18884   1.54239 
 H                    -2.54705   0.47333   2.47584 
 C                    -3.41972  -0.30206  -1.39535 
 H                    -4.06418  -1.17146  -1.22362 
 H                    -4.06382   0.56721  -1.56938 
 H                    -2.84604  -0.48224  -2.31107 
 C                     0.00989  -2.8284   -1.75233 
 H                     0.89812  -3.43556  -1.96046 
 H                    -0.87365  -3.44143  -1.96321 
 H                     0.00812  -1.98618  -2.45356 
 C                     0.00679  -3.64246   1.24077 
 H                    -0.87802  -4.27595   1.11352 
 H                     0.89545  -4.27114   1.11645 
 H                     0.00407  -3.26117   2.26771 
 C                     3.41851  -0.29206  -1.39544 
 H                     4.05942   0.57896  -1.57245 
 H                     4.06615  -1.15876  -1.22207 
 H                     2.84453  -0.47664  -2.3101 
 C                     3.22997   0.32377   1.63421 
 H                     3.86871  -0.53007   1.88672 
 H                     3.86997   1.20797   1.53802 
 H                     2.54726   0.4904    2.47464 
 C                    -0.00841   3.4768   -1.51747 
 H                    -0.00805   2.97427  -2.49086 
 H                    -0.89647   4.11661  -1.46831 
 H                     0.87695   4.12043  -1.46965 
 C                    -0.0051    3.03428   1.55107 
 H                     0.87968   3.66727   1.68298 
 H                    -0.89225   3.66369   1.68419 
 H                    -0.00307   2.28546   2.35109 
 H                    -3.86569  -0.55006   1.88667 
 
                          Input orientation:                          
 ---------------------------------------------------------------------
 Center     Atomic      Atomic             Coordinates (Angstroms)
 Number     Number       Type             X           Y           Z
 ---------------------------------------------------------------------
      1          8           0       -1.344525    1.290774   -0.295546
      2          8           0        1.339123    1.296676   -0.297878
      3          8           0        1.343691   -1.323594    0.298657
      4          8           0       -1.340001   -1.331377    0.293302
      5         14           0       -2.281871   -0.008942    0.056938
      6         14           0        2.281211    0.001081    0.057296
      7         14           0       -0.004638    2.223589   -0.135430
      8         14           0        0.004977   -2.230877    0.021156
      9          6           0       -3.230051    0.306543    1.635679
     10          1           0       -3.873102    1.188839    1.542392
     11          1           0       -2.547045    0.473325    2.475836
     12          6           0       -3.419723   -0.302058   -1.395347
     13          1           0       -4.064178   -1.171460   -1.223617
     14          1           0       -4.063823    0.567211   -1.569382
     15          1           0       -2.846044   -0.482239   -2.311070
     16          6           0        0.009885   -2.828402   -1.752334
     17          1           0        0.898118   -3.435559   -1.960457
     18          1           0       -0.873652   -3.441433   -1.963211
     19          1           0        0.008122   -1.986182   -2.453561
     20          6           0        0.006793   -3.642455    1.240769
     21          1           0       -0.878022   -4.275947    1.113515
     22          1           0        0.895445   -4.271143    1.116446
     23          1           0        0.004069   -3.261166    2.267707
     24          6           0        3.418505   -0.292059   -1.395440
     25          1           0        4.059420    0.578961   -1.572452
     26          1           0        4.066148   -1.158763   -1.222070
     27          1           0        2.844530   -0.476636   -2.310099
     28          6           0        3.229967    0.323773    1.634212
     29          1           0        3.868714   -0.530066    1.886721
     30          1           0        3.869969    1.207965    1.538016
     31          1           0        2.547259    0.490396    2.474635
     32          6           0       -0.008412    3.476797   -1.517474
     33          1           0       -0.008053    2.974270   -2.490859
     34          1           0       -0.896473    4.116606   -1.468312
     35          1           0        0.876954    4.120433   -1.469648
     36          6           0       -0.005103    3.034279    1.551071
     37          1           0        0.879675    3.667266    1.682980
     38          1           0       -0.892247    3.663692    1.684187
     39          1           0       -0.003068    2.285456    2.351089
     40          1           0       -3.865693   -0.550063    1.886669
 ---------------------------------------------------------------------
                    Distance matrix (angstroms):
                    1          2          3          4          5
     1  O    0.000000
     2  O    2.683656   0.000000
     3  O    3.796644   2.687320   0.000000
     4  O    2.687459   3.799192   2.683709   0.000000
     5  Si   1.640769   3.865505   3.864122   1.640677   0.000000
     6  Si   3.864423   1.640806   1.640720   3.865788   4.563093
     7  Si   1.640451   1.640503   3.819546   3.821621   3.194838
     8  Si   3.784638   3.784886   1.640830   1.640771   3.188722
     9  C    2.872899   5.059284   5.036277   2.838494   1.868422
    10  H    3.127636   5.528608   5.922341   3.785276   2.484606
    11  H    3.129670   4.844966   4.806959   3.078532   2.480719
    12  C    2.837802   5.138775   5.157839   2.869891   1.868089
    13  H    3.784234   6.012017   5.620099   3.122140   2.483523
    14  H    3.088816   5.598274   6.025439   3.807024   2.480367
    15  H    3.075788   4.973239   5.007238   3.126013   2.479872
    16  C    4.574305   4.571497   2.872290   2.871916   4.058936
    17  H    5.489954   5.035147   3.124504   3.810012   5.091553
    18  H    5.039505   5.488113   3.810236   3.124367   4.224462
    19  H    4.150316   4.146769   3.130091   3.129131   3.931431
    20  C    5.340700   5.342055   2.837602   2.837716   4.454420
    21  H    5.761203   6.161322   3.783701   3.091386   4.614594
    22  H    6.160041   5.761751   3.091561   3.783782   5.420724
    23  H    5.395288   5.398011   3.070168   3.070649   4.548624
    24  C    5.138247   2.837702   2.870345   5.155134   5.889299
    25  H    5.598195   3.088636   3.807355   6.023635   6.573623
    26  H    6.011161   3.784175   3.122748   5.617170   6.576876
    27  H    4.972961   3.075698   3.126574   5.001858   5.665826
    28  C    5.058165   2.873117   2.838232   5.042040   5.742722
    29  H    5.937643   3.808975   3.086645   5.505615   6.438119
    30  H    5.528088   3.127868   3.785087   5.928015   6.443570
    31  H    4.843603   3.129937   3.077989   4.815378   5.423568
    32  C    2.838486   2.838343   5.307567   5.307596   4.449468
    33  H    3.072412   3.072193   5.299080   5.297569   4.534432
    34  H    3.092161   3.784153   6.142987   5.742867   4.611492
    35  H    3.784238   3.091965   5.743011   6.143705   5.418522
    36  C    2.871211   2.871379   4.730628   4.735281   4.083785
    37  H    3.809113   3.123234   5.200033   5.643102   5.114087
    38  H    3.123242   3.809246   5.638451   5.204398   4.250557
    39  H    3.129469   3.129886   4.364800   4.370739   3.964888
    40  H    3.808810   5.939091   5.500710   3.086809   2.479762
                    6          7          8          9         10
     6  Si   0.000000
     7  Si   3.194024   0.000000
     8  Si   3.188132   4.457228   0.000000
     9  C    5.740959   4.149118   4.417079   0.000000
    10  H    6.441417   4.341752   5.389630   1.095748   0.000000
    11  H    5.420739   4.043015   4.455444   1.095526   1.772486
    12  C    5.890901   4.430473   4.177965   3.097336   3.325453
    13  H    6.578720   5.402812   4.385185   3.325031   3.641199
    14  H    6.574651   4.612677   5.187894   3.321978   3.178983
    15  H    5.668465   4.486480   4.077418   4.043076   4.323947
    16  C    4.054585   5.304451   1.871451   5.639477   6.486219
    17  H    4.218385   6.014287   2.485106   6.631538   7.511295
    18  H    5.087879   6.015683   2.484984   5.705432   6.536465
    19  H    3.926901   4.805837   2.486787   5.697740   6.411887
    20  C    4.455215   6.025324   1.865479   5.121298   6.203706
    21  H    5.421192   6.675824   2.480977   5.177249   6.246465
    22  H    4.614547   6.675244   2.480983   6.184216   7.261672
    23  H    4.551214   5.988128   2.471535   4.856700   5.946518
    24  C    1.868103   4.431029   4.173480   7.331392   7.999466
    25  H    2.480333   4.613719   5.183945   7.968858   8.543952
    26  H    2.483549   5.402998   4.380428   7.971723   8.728412
    27  H    2.479940   4.487556   4.071262   7.285813   7.920989
    28  C    1.868404   4.147723   4.419134   6.460041   7.156141
    29  H    2.479734   5.164743   4.615361   7.152300   7.937815
    30  H    2.484603   4.341024   5.391165   7.157680   7.743096
    31  H    2.480673   4.040863   4.459606   5.840801   6.525177
    32  C    4.450042   1.865634   5.911438   5.511065   5.434460
    33  H    4.535821   2.472161   5.779615   5.875913   5.864596
    34  H    5.418736   2.481019   6.581920   5.440306   5.147473
    35  H    4.612218   2.481000   6.581943   6.407519   6.342686
    36  C    4.081530   1.871231   5.482938   4.224688   4.285690
    37  H    4.248301   2.484518   6.189899   5.309100   5.362020
    38  H    5.111979   2.484502   6.190043   4.091226   3.876919
    39  H    3.962043   2.487289   5.081921   3.852444   4.102892
    40  H    6.436986   5.166215   4.613823   1.095815   1.772671
                   11         12         13         14         15
    11  H    0.000000
    12  C    4.043370   0.000000
    13  H    4.323536   1.095752   0.000000
    14  H    4.321252   1.095802   1.772718   0.000000
    15  H    4.890498   1.095501   1.772408   1.770433   0.000000
    16  C    5.942787   4.274584   4.429784   5.306482   3.738047
    17  H    6.843188   5.364879   5.503949   6.387172   4.781608
    18  H    6.150668   4.081743   3.984876   5.138241   3.573257
    19  H    6.072644   3.963106   4.331300   4.886955   3.229305
    20  C    4.998712   5.463366   5.362072   6.495241   5.544475
    21  H    5.215088   5.342886   5.025099   6.387757   5.476597
    22  H    6.017363   6.378355   6.299348   7.430860   6.332646
    23  H    4.527463   5.822082   5.753855   6.776981   6.067189
    24  C    7.152648   6.838235   7.536141   7.533514   6.333966
    25  H    7.748882   7.532937   8.317362   8.123252   7.025463
    26  H    7.750648   7.536726   8.130336   8.318416   7.030079
    27  H    7.271635   6.333097   7.028049   7.025925   5.690577
    28  C    5.839911   7.334049   7.975428   7.970047   7.289226
    29  H    6.520415   7.996579   8.544961   8.722030   7.919073
    30  H    6.526658   8.001525   8.731493   8.544679   7.923199
    31  H    5.094333   7.156090   7.755639   7.750250   7.275762
    32  C    5.604643   5.092318   6.175912   4.991467   4.935171
    33  H    6.113041   4.855303   5.936761   4.805447   4.475932
    34  H    5.617311   5.088881   6.169106   4.758206   5.065614
    35  H    6.371186   6.166472   7.244270   6.086593   5.979406
    36  C    3.724936   5.610005   6.470180   5.683033   5.945837
    37  H    4.751030   6.611842   7.503550   6.680297   6.859432
    38  H    3.680150   5.621284   6.472647   5.498436   6.080144
    39  H    3.125892   5.692499   6.420390   5.900186   6.121958
    40  H    1.770105   3.321449   3.177957   3.637560   4.320335
                   16         17         18         19         20
    16  C    0.000000
    17  H    1.095862   0.000000
    18  H    1.095862   1.771782   0.000000
    19  H    1.095927   1.770858   1.770798   0.000000
    20  C    3.101831   3.329432   3.328826   4.048619   0.000000
    21  H    3.331194   3.648319   3.187895   4.330393   1.095629
    22  H    3.331008   3.188344   3.647247   4.330513   1.095631
    23  H    4.043272   4.325171   4.324761   4.890396   1.095441
    24  C    4.263696   4.068561   5.353833   3.952263   5.460268
    25  H    5.295396   5.124524   6.375850   4.875380   6.492946
    26  H    4.418387   3.970570   5.491948   4.320737   5.358420
    27  H    3.725200   3.558932   4.768147   3.216290   5.539298
    28  C    5.636828   5.700153   6.630077   5.694389   5.125877
    29  H    5.780625   5.662783   6.766688   5.988530   5.001865
    30  H    6.482199   6.529435   7.508491   6.406959   6.207983
    31  H    5.943059   6.148401   6.845173   6.071884   5.005682
    32  C    6.309598   6.985606   6.986360   5.542623   7.634912
    33  H    5.849508   6.495258   6.495300   4.960619   7.596467
    34  H    7.009657   7.778043   7.574259   6.247642   8.267892
    35  H    7.008425   7.571945   7.777535   6.246095   8.268372
    36  C    6.729319   7.416565   7.418854   6.422015   6.683951
    37  H    7.399434   7.982800   8.179393   7.059182   7.374923
    38  H    7.400730   8.178521   7.986655   7.060644   7.374597
    39  H    6.556660   7.220220   7.222767   6.428972   6.031006
    40  H    5.783881   6.769074   5.668678   5.992201   4.997622
                   21         22         23         24         25
    21  H    0.000000
    22  H    1.773476   0.000000
    23  H    1.772011   1.772006   0.000000
    24  C    6.373881   5.339336   5.821736   0.000000
    25  H    7.427172   6.384702   6.777851   1.095802   0.000000
    26  H    6.294173   5.020849   5.753184   1.095753   1.772709
    27  H    6.325606   5.471602   6.064498   1.095499   1.770414
    28  C    6.189032   5.179896   4.864105   3.097352   3.322019
    29  H    6.095980   4.840383   4.747582   3.321433   3.637607
    30  H    7.266148   6.248691   5.954054   3.325516   3.179080
    31  H    6.025216   5.219715   4.537053   4.043363   4.321272
    32  C    8.233065   8.233169   7.728383   5.095383   4.994771
    33  H    8.143341   8.144014   7.843772   4.859027   4.808879
    34  H    8.780724   8.958029   8.318674   6.169333   6.089881
    35  H    8.958341   8.781046   8.319721   5.092649   4.762424
    36  C    7.375151   7.373539   6.336109   5.609594   5.683778
    37  H    8.155270   7.958615   7.007978   5.621262   5.499658
    38  H    7.960134   8.153513   7.006963   6.611706   6.681337
    39  H    6.734177   6.732062   5.547253   5.690978   5.900009
    40  H    4.837991   6.091643   4.740288   7.993644   8.720529
                   26         27         28         29         30
    26  H    0.000000
    27  H    1.772415   0.000000
    28  C    3.324975   4.043118   0.000000
    29  H    3.177864   4.320313   1.095810   0.000000
    30  H    3.641148   4.324048   1.095743   1.772667   0.000000
    31  H    4.323468   4.890521   1.095520   1.770093   1.772490
    32  C    6.178812   4.939349   5.510153   6.532656   5.433733
    33  H    5.940615   4.480921   5.875893   6.817103   5.864360
    34  H    7.246914   5.983442   6.406149   7.453510   6.341701
    35  H    6.172695   5.070578   5.439232   6.468615   5.146518
    36  C    6.468925   5.946055   4.221307   5.274815   4.283897
    37  H    6.471745   6.080893   4.087199   5.156885   3.874408
    38  H    7.502538   6.860039   5.305677   6.347864   5.360099
    39  H    6.417837   6.120837   3.848978   4.809729   4.101523
    40  H    8.541011   7.914881   7.153720   7.734433   7.940572
                   31         32         33         34         35
    31  H    0.000000
    32  C    5.602408   0.000000
    33  H    6.111905   1.095451   0.000000
    34  H    6.368322   1.095639   1.771955   0.000000
    35  H    5.614664   1.095640   1.771948   1.773432   0.000000
    36  C    3.720062   3.100291   4.042377   3.329061   3.329039
    37  H    3.674242   3.326843   4.323105   3.645168   3.185032
    38  H    4.746032   3.326669   4.322975   3.184870   3.644909
    39  H    3.121165   4.047851   4.890700   4.328869   4.328927
    40  H    6.523359   6.533177   6.816529   6.469155   7.454602
                   36         37         38         39         40
    36  C    0.000000
    37  H    1.095858   0.000000
    38  H    1.095858   1.771926   0.000000
    39  H    1.095796   1.770594   1.770574   0.000000
    40  H    5.278664   6.351840   5.161212   4.814117   0.000000
 Stoichiometry    C8H24O4Si4
 Framework group  C1[X(C8H24O4Si4)]
 Deg. of freedom   114
 Full point group                 C1      NOp   1
 Largest Abelian subgroup         C1      NOp   1
 Largest concise Abelian subgroup C1      NOp   1
                         Standard orientation:                         
 ---------------------------------------------------------------------
 Center     Atomic      Atomic             Coordinates (Angstroms)
 Number     Number       Type             X           Y           Z
 ---------------------------------------------------------------------
      1          8           0        1.344525   -1.290774   -0.295546
      2          8           0       -1.339123   -1.296676   -0.297878
      3          8           0       -1.343691    1.323594    0.298657
      4          8           0        1.340001    1.331377    0.293302
      5         14           0        2.281871    0.008942    0.056938
      6         14           0       -2.281211   -0.001081    0.057296
      7         14           0        0.004638   -2.223589   -0.135430
      8         14           0       -0.004977    2.230877    0.021156
      9          6           0        3.230051   -0.306543    1.635679
     10          1           0        3.873102   -1.188839    1.542392
     11          1           0        2.547045   -0.473325    2.475836
     12          6           0        3.419723    0.302058   -1.395347
     13          1           0        4.064178    1.171460   -1.223617
     14          1           0        4.063823   -0.567211   -1.569382
     15          1           0        2.846044    0.482239   -2.311070
     16          6           0       -0.009885    2.828402   -1.752334
     17          1           0       -0.898118    3.435559   -1.960457
     18          1           0        0.873652    3.441433   -1.963211
     19          1           0       -0.008122    1.986182   -2.453561
     20          6           0       -0.006793    3.642455    1.240769
     21          1           0        0.878022    4.275947    1.113515
     22          1           0       -0.895445    4.271143    1.116446
     23          1           0       -0.004069    3.261166    2.267707
     24          6           0       -3.418505    0.292059   -1.395440
     25          1           0       -4.059420   -0.578961   -1.572452
     26          1           0       -4.066148    1.158763   -1.222070
     27          1           0       -2.844530    0.476636   -2.310099
     28          6           0       -3.229967   -0.323773    1.634212
     29          1           0       -3.868714    0.530066    1.886721
     30          1           0       -3.869969   -1.207965    1.538016
     31          1           0       -2.547259   -0.490396    2.474635
     32          6           0        0.008412   -3.476797   -1.517474
     33          1           0        0.008053   -2.974270   -2.490859
     34          1           0        0.896473   -4.116606   -1.468312
     35          1           0       -0.876954   -4.120433   -1.469648
     36          6           0        0.005103   -3.034279    1.551071
     37          1           0       -0.879675   -3.667266    1.682980
     38          1           0        0.892247   -3.663692    1.684187
     39          1           0        0.003068   -2.285456    2.351089
     40          1           0        3.865693    0.550063    1.886669
 ---------------------------------------------------------------------
 Rotational constants (GHZ):           0.3670606           0.3570320           0.2338125
 Standard basis: CC-pVDZ (5D, 7F)
 There are   376 symmetry adapted cartesian basis functions of A   symmetry.
 There are   360 symmetry adapted basis functions of A   symmetry.
   360 basis functions,   848 primitive gaussians,   376 cartesian basis functions
    80 alpha electrons       80 beta electrons
       nuclear repulsion energy      1884.2352371627 Hartrees.
 NAtoms=   40 NActive=   40 NUniq=   40 SFac= 1.00D+00 NAtFMM=   60 NAOKFM=F Big=F
 Integral buffers will be    131072 words long.
 Raffenetti 1 integral format.
 Two-electron integral symmetry is turned on.
 One-electron integrals computed using PRISM.
 NBasis=   360 RedAO= T EigKep=  4.11D-03  NBF=   360
 NBsUse=   360 1.00D-06 EigRej= -1.00D+00 NBFU=   360
 ExpMin= 8.77D-02 ExpMax= 7.89D+04 ExpMxC= 2.69D+03 IAcc=3 IRadAn=         5 AccDes= 0.00D+00
 Harris functional with IExCor=  205 and IRadAn=       5 diagonalized for initial guess.
 HarFok:  IExCor=  205 AccDes= 0.00D+00 IRadAn=         5 IDoV= 1 UseB2=F ITyADJ=14
 ICtDFT=  3500011 ScaDFX=  1.000000  1.000000  1.000000  1.000000
 FoFCou: FMM=F IPFlag=           0 FMFlag=      100000 FMFlg1=           0
         NFxFlg=           0 DoJE=T BraDBF=F KetDBF=T FulRan=T
         wScrn=  0.000000 ICntrl=       500 IOpCl=  0 I1Cent=   200000004 NGrid=           0
         NMat0=    1 NMatS0=      1 NMatT0=    0 NMatD0=    1 NMtDS0=    0 NMtDT0=    0
 Petite list used in FoFCou.
 Requested convergence on RMS density matrix=1.00D-08 within 128 cycles.
 Requested convergence on MAX density matrix=1.00D-06.
 Requested convergence on             energy=1.00D-06.
 No special actions if energy rises.
 Integral accuracy reduced to 1.0D-05 until final iterations.
 Initial convergence to 1.0D-05 achieved.  Increase integral accuracy.
 SCF Done:  E(RHF) =  -1772.63082286     A.U. after   12 cycles
            NFock= 12  Conv=0.25D-08     -V/T= 2.0004
 ExpMin= 8.77D-02 ExpMax= 7.89D+04 ExpMxC= 2.69D+03 IAcc=3 IRadAn=         5 AccDes= 0.00D+00
 HarFok:  IExCor=  205 AccDes= 0.00D+00 IRadAn=         5 IDoV=-2 UseB2=F ITyADJ=14
 ICtDFT= 12500011 ScaDFX=  1.000000  1.000000  1.000000  1.000000
 GSVD:  LWork=       -1280 too small for GESVD, short by        5600 words or        5600 for optimal perf.
 Range of M.O.s used for correlation:    33   360
 NBasis=   360 NAE=    80 NBE=    80 NFC=    32 NFV=     0
 NROrb=    328 NOA=    48 NOB=    48 NVA=   280 NVB=   280
 Semi-Direct transformation.
 ModeAB=           4 MOrb=            48 LenV=    6707679397
 LASXX=    765456756 LTotXX=   765456756 LenRXX=  1538272212
 LTotAB=   772815456 MaxLAS=   906523776 LenRXY=           0
 NonZer=  2303728968 LenScr=  3456346665 LnRSAI=   906523776
 LnScr1=  1360518710 LExtra=           0 Total=   7261661363
 MaxDsk=          -1 SrtSym=           T ITran=            4
 JobTyp=0 Pass  1:  I=   1 to  48.
 (rs|ai) integrals will be sorted in core.
 SymMOI:  orbitals are not symmetric.
 Spin components of T(2) and E(2):
     alpha-alpha T2 =       0.9183227751D-01 E2=     -0.2735862972D+00
     alpha-beta  T2 =       0.5502169125D+00 E2=     -0.1699868906D+01
     beta-beta   T2 =       0.9183227751D-01 E2=     -0.2735862972D+00
 ANorm=    0.1316769330D+01
 E2 =    -0.2247041501D+01 EUMP2 =    -0.17748778643609D+04
 Keep R2 and R3 ints in memory in canonical form, NReq=4249289161.
 CIDS: In Core Option IDoMem=           1.
 Iterations=  50 Convergence= 0.100D-06
 Produce multiple copies of IABC intergrals
 Iteration Nr.   1
 **********************
 DD1Dir will call FoFMem   1 times, MxPair=      2352
 NAB=  1176 NAA=     0 NBB=     0.
 MP4(R+Q)=  0.36708309D-01
 E3=       -0.13156263D+00        EUMP3=      -0.17750094270D+04
 E4(DQ)=   -0.14748919D-01        UMP4(DQ)=   -0.17750241759D+04
 E4(SDQ)=  -0.32477395D-01        UMP4(SDQ)=  -0.17750419044D+04
 DE(Corr)=  -2.3413943     E(Corr)=     -1774.9722171    
 NORM(A)=   0.13508249D+01
 Iteration Nr.   2
 **********************
 DD1Dir will call FoFMem   1 times, MxPair=      2352
 NAB=  1176 NAA=     0 NBB=     0.
 DE(Corr)=  -2.3980841     E(CORR)=     -1775.0289070     Delta=-5.67D-02
 NORM(A)=   0.13720746D+01
 Iteration Nr.   3
 **********************
 DD1Dir will call FoFMem   1 times, MxPair=      2352
 NAB=  1176 NAA=     0 NBB=     0.
 DE(Corr)=  -2.4049829     E(CORR)=     -1775.0358058     Delta=-6.90D-03
 NORM(A)=   0.13762429D+01
 Iteration Nr.   4
 **********************
 DD1Dir will call FoFMem   1 times, MxPair=      2352
 NAB=  1176 NAA=     0 NBB=     0.
 DE(Corr)=  -2.4096426     E(CORR)=     -1775.0404655     Delta=-4.66D-03
 NORM(A)=   0.13771008D+01
 Iteration Nr.   5
 **********************
 DD1Dir will call FoFMem   1 times, MxPair=      2352
 NAB=  1176 NAA=     0 NBB=     0.
 DE(Corr)=  -2.4100408     E(CORR)=     -1775.0408637     Delta=-3.98D-04
 NORM(A)=   0.13772728D+01
 Iteration Nr.   6
 **********************
 DD1Dir will call FoFMem   1 times, MxPair=      2352
 NAB=  1176 NAA=     0 NBB=     0.
 DE(Corr)=  -2.4100783     E(CORR)=     -1775.0409011     Delta=-3.74D-05
 NORM(A)=   0.13772809D+01
 Iteration Nr.   7
 **********************
 DD1Dir will call FoFMem   1 times, MxPair=      2352
 NAB=  1176 NAA=     0 NBB=     0.
 DE(Corr)=  -2.4100792     E(CORR)=     -1775.0409021     Delta=-9.12D-07
 NORM(A)=   0.13772818D+01
 Iteration Nr.   8
 **********************
 DD1Dir will call FoFMem   1 times, MxPair=      2352
 NAB=  1176 NAA=     0 NBB=     0.
 DE(Corr)=  -2.4100764     E(CORR)=     -1775.0408993     Delta= 2.79D-06
 NORM(A)=   0.13772854D+01
 Iteration Nr.   9
 **********************
 DD1Dir will call FoFMem   1 times, MxPair=      2352
 NAB=  1176 NAA=     0 NBB=     0.
 DE(Corr)=  -2.4100771     E(CORR)=     -1775.0409000     Delta=-6.92D-07
 NORM(A)=   0.13772864D+01
 Iteration Nr.  10
 **********************
 DD1Dir will call FoFMem   1 times, MxPair=      2352
 NAB=  1176 NAA=     0 NBB=     0.
 DE(Corr)=  -2.4100778     E(CORR)=     -1775.0409006     Delta=-6.57D-07
 NORM(A)=   0.13772871D+01
 Iteration Nr.  11
 **********************
 DD1Dir will call FoFMem   1 times, MxPair=      2352
 NAB=  1176 NAA=     0 NBB=     0.
 DE(Corr)=  -2.4100780     E(CORR)=     -1775.0409009     Delta=-2.62D-07
 NORM(A)=   0.13772874D+01
 Iteration Nr.  12
 **********************
 DD1Dir will call FoFMem   1 times, MxPair=      2352
 NAB=  1176 NAA=     0 NBB=     0.
 DE(Corr)=  -2.4100782     E(CORR)=     -1775.0409011     Delta=-1.83D-07
 NORM(A)=   0.13772874D+01
 Iteration Nr.  13
 **********************
 DD1Dir will call FoFMem   1 times, MxPair=      2352
 NAB=  1176 NAA=     0 NBB=     0.
 DE(Corr)=  -2.4100782     E(CORR)=     -1775.0409011     Delta= 5.09D-10
 NORM(A)=   0.13772875D+01
 Wavefunction amplitudes converged. E(Corr)=     -1775.0409011    
 Largest amplitude= 2.38D-02
 Discarding MO integrals.

 **********************************************************************

            Population analysis using the SCF density.

 **********************************************************************

 Orbital symmetries:
       Occupied  (A) (A) (A) (A) (A) (A) (A) (A) (A) (A) (A) (A)
                 (A) (A) (A) (A) (A) (A) (A) (A) (A) (A) (A) (A)
                 (A) (A) (A) (A) (A) (A) (A) (A) (A) (A) (A) (A)
                 (A) (A) (A) (A) (A) (A) (A) (A) (A) (A) (A) (A)
                 (A) (A) (A) (A) (A) (A) (A) (A) (A) (A) (A) (A)
                 (A) (A) (A) (A) (A) (A) (A) (A) (A) (A) (A) (A)
                 (A) (A) (A) (A) (A) (A) (A) (A)
       Virtual   (A) (A) (A) (A) (A) (A) (A) (A) (A) (A) (A) (A)
                 (A) (A) (A) (A) (A) (A) (A) (A) (A) (A) (A) (A)
                 (A) (A) (A) (A) (A) (A) (A) (A) (A) (A) (A) (A)
                 (A) (A) (A) (A) (A) (A) (A) (A) (A) (A) (A) (A)
                 (A) (A) (A) (A) (A) (A) (A) (A) (A) (A) (A) (A)
                 (A) (A) (A) (A) (A) (A) (A) (A) (A) (A) (A) (A)
                 (A) (A) (A) (A) (A) (A) (A) (A) (A) (A) (A) (A)
                 (A) (A) (A) (A) (A) (A) (A) (A) (A) (A) (A) (A)
                 (A) (A) (A) (A) (A) (A) (A) (A) (A) (A) (A) (A)
                 (A) (A) (A) (A) (A) (A) (A) (A) (A) (A) (A) (A)
                 (A) (A) (A) (A) (A) (A) (A) (A) (A) (A) (A) (A)
                 (A) (A) (A) (A) (A) (A) (A) (A) (A) (A) (A) (A)
                 (A) (A) (A) (A) (A) (A) (A) (A) (A) (A) (A) (A)
                 (A) (A) (A) (A) (A) (A) (A) (A) (A) (A) (A) (A)
                 (A) (A) (A) (A) (A) (A) (A) (A) (A) (A) (A) (A)
                 (A) (A) (A) (A) (A) (A) (A) (A) (A) (A) (A) (A)
                 (A) (A) (A) (A) (A) (A) (A) (A) (A) (A) (A) (A)
                 (A) (A) (A) (A) (A) (A) (A) (A) (A) (A) (A) (A)
                 (A) (A) (A) (A) (A) (A) (A) (A) (A) (A) (A) (A)
                 (A) (A) (A) (A) (A) (A) (A) (A) (A) (A) (A) (A)
                 (A) (A) (A) (A) (A) (A) (A) (A) (A) (A) (A) (A)
                 (A) (A) (A) (A) (A) (A) (A) (A) (A) (A) (A) (A)
                 (A) (A) (A) (A) (A) (A) (A) (A) (A) (A) (A) (A)
                 (A) (A) (A) (A)
 The electronic state is 1-A.
 Alpha  occ. eigenvalues --  -68.81939 -68.81885 -68.81884 -68.81884 -20.53393
 Alpha  occ. eigenvalues --  -20.53391 -20.53341 -20.53337 -11.20525 -11.20504
 Alpha  occ. eigenvalues --  -11.20279 -11.20277 -11.20254 -11.20250 -11.20117
 Alpha  occ. eigenvalues --  -11.20078  -6.15826  -6.15780  -6.15779  -6.15774
 Alpha  occ. eigenvalues --   -4.26677  -4.26632  -4.26632  -4.26624  -4.26533
 Alpha  occ. eigenvalues --   -4.26483  -4.26482  -4.26480  -4.26409  -4.26359
 Alpha  occ. eigenvalues --   -4.26359  -4.26357  -1.34333  -1.31984  -1.31960
 Alpha  occ. eigenvalues --   -1.29445  -0.95959  -0.95010  -0.94953  -0.94441
 Alpha  occ. eigenvalues --   -0.92476  -0.92332  -0.92300  -0.92163  -0.77656
 Alpha  occ. eigenvalues --   -0.73281  -0.73075  -0.66058  -0.59950  -0.59678
 Alpha  occ. eigenvalues --   -0.57938  -0.57363  -0.56968  -0.56959  -0.55799
 Alpha  occ. eigenvalues --   -0.55704  -0.55590  -0.55502  -0.55179  -0.54882
 Alpha  occ. eigenvalues --   -0.53969  -0.53775  -0.53635  -0.53612  -0.53590
 Alpha  occ. eigenvalues --   -0.53369  -0.52622  -0.52552  -0.52093  -0.51557
 Alpha  occ. eigenvalues --   -0.51152  -0.50041  -0.48195  -0.47885  -0.47486
 Alpha  occ. eigenvalues --   -0.46929  -0.43401  -0.41094  -0.40890  -0.39393
 Alpha virt. eigenvalues --    0.14686   0.17430   0.17995   0.19248   0.20883
 Alpha virt. eigenvalues --    0.21435   0.22627   0.23093   0.23228   0.23487
 Alpha virt. eigenvalues --    0.23508   0.24016   0.24089   0.25436   0.25630
 Alpha virt. eigenvalues --    0.25763   0.25946   0.26172   0.26789   0.27220
 Alpha virt. eigenvalues --    0.27294   0.27863   0.28459   0.28626   0.29262
 Alpha virt. eigenvalues --    0.29322   0.29649   0.30527   0.31115   0.32538
 Alpha virt. eigenvalues --    0.32712   0.34787   0.35785   0.36745   0.37325
 Alpha virt. eigenvalues --    0.38569   0.38702   0.40396   0.41978   0.44142
 Alpha virt. eigenvalues --    0.44932   0.48343   0.48746   0.50020   0.50386
 Alpha virt. eigenvalues --    0.51652   0.53011   0.53810   0.54401   0.54457
 Alpha virt. eigenvalues --    0.55834   0.56798   0.57982   0.58542   0.59010
 Alpha virt. eigenvalues --    0.59597   0.61042   0.62109   0.63105   0.64522
 Alpha virt. eigenvalues --    0.69614   0.71242   0.71344   0.71616   0.71800
 Alpha virt. eigenvalues --    0.74071   0.74097   0.74368   0.74522   0.75180
 Alpha virt. eigenvalues --    0.76418   0.76669   0.76694   0.77306   0.77797
 Alpha virt. eigenvalues --    0.78084   0.78457   0.78652   0.79423   0.81611
 Alpha virt. eigenvalues --    0.82169   0.82520   0.82938   0.83116   0.84869
 Alpha virt. eigenvalues --    0.84915   0.85612   0.85926   0.88382   0.89527
 Alpha virt. eigenvalues --    0.89707   0.90040   0.90132   0.90840   0.91012
 Alpha virt. eigenvalues --    0.91508   0.91518   0.91795   0.92809   0.93164
 Alpha virt. eigenvalues --    0.93639   0.93903   0.94329   0.94527   0.95209
 Alpha virt. eigenvalues --    0.96023   0.96069   0.96571   0.98555   0.99888
 Alpha virt. eigenvalues --    1.00995   1.03315   1.05438   1.07227   1.07667
 Alpha virt. eigenvalues --    1.08644   1.10674   1.11700   1.11799   1.13930
 Alpha virt. eigenvalues --    1.20266   1.20737   1.21574   1.23152   1.27106
 Alpha virt. eigenvalues --    1.27760   1.27990   1.29875   1.30294   1.30985
 Alpha virt. eigenvalues --    1.31033   1.31776   1.35423   1.36274   1.36676
 Alpha virt. eigenvalues --    1.36691   1.37146   1.39155   1.39479   1.40630
 Alpha virt. eigenvalues --    1.41298   1.44416   1.44568   1.49294   1.49866
 Alpha virt. eigenvalues --    1.50129   1.52696   1.54207   1.60520   1.62610
 Alpha virt. eigenvalues --    1.64049   1.64738   1.65201   1.66535   1.68215
 Alpha virt. eigenvalues --    1.68481   1.68926   1.68981   1.69085   1.69120
 Alpha virt. eigenvalues --    1.69183   1.70096   1.70849   1.71789   1.85999
 Alpha virt. eigenvalues --    1.86213   1.86318   1.87107   1.88207   1.88979
 Alpha virt. eigenvalues --    1.89338   1.89915   1.90093   1.90184   1.91917
 Alpha virt. eigenvalues --    1.92321   1.92640   1.92649   1.92702   1.93307
 Alpha virt. eigenvalues --    1.93383   1.93564   1.95407   1.95740   1.96088
 Alpha virt. eigenvalues --    1.97270   1.97286   1.98194   1.98848   1.99322
 Alpha virt. eigenvalues --    1.99842   2.00119   2.00167   2.00460   2.00539
 Alpha virt. eigenvalues --    2.01078   2.01084   2.01546   2.03416   2.04369
 Alpha virt. eigenvalues --    2.06335   2.07026   2.09591   2.09984   2.11446
 Alpha virt. eigenvalues --    2.12173   2.15183   2.16267   2.17767   2.22251
 Alpha virt. eigenvalues --    2.25471   2.27272   2.27782   2.27933   2.28054
 Alpha virt. eigenvalues --    2.30976   2.34220   2.34579   2.35115   2.36256
 Alpha virt. eigenvalues --    2.40317   2.41291   2.42415   2.42606   2.44133
 Alpha virt. eigenvalues --    2.44608   2.45080   2.45292   2.46645   2.46719
 Alpha virt. eigenvalues --    2.47470   2.47719   2.48510   2.48543   2.48847
 Alpha virt. eigenvalues --    2.49420   2.75174   2.75518   2.76517   2.76923
 Alpha virt. eigenvalues --    2.77098   2.77385   2.77778   2.77843   2.78742
 Alpha virt. eigenvalues --    2.79148   2.79978   2.80324   2.80631   2.80943
 Alpha virt. eigenvalues --    2.82133   2.82424   2.82622   2.83275   2.83336
 Alpha virt. eigenvalues --    2.83546   2.83630   2.84631   2.85893   2.86902
 Alpha virt. eigenvalues --    2.95121   2.96358   2.97962   2.99343   3.00442
 Alpha virt. eigenvalues --    3.01203   3.07843   3.10066   3.12879   3.17367
 Alpha virt. eigenvalues --    3.23256   3.26000   3.31266   3.35327   3.37823
 Alpha virt. eigenvalues --    3.38873   3.49504   3.53644   3.54550   3.60185
     Molecular Orbital Coefficients:
                           1         2         3         4         5
                           O         O         O         O         O
     Eigenvalues --   -68.81939 -68.81885 -68.81884 -68.81884 -20.53393
   1 1   O  1S          0.00001   0.00001   0.00000   0.00000  -0.28378
   2        2S          0.00003   0.00003   0.00001   0.00000  -0.00455
   3        3S         -0.00011  -0.00011  -0.00003  -0.00001   0.00164
   4        4PX        -0.00000   0.00000  -0.00000  -0.00000   0.00004
   5        4PY        -0.00000   0.00000   0.00000   0.00000  -0.00006
   6        4PZ        -0.00000   0.00000  -0.00000   0.00000  -0.00010
   7        5PX         0.00016  -0.00011  -0.00000   0.00002   0.00013
   8        5PY         0.00012  -0.00015  -0.00003  -0.00001   0.00009
   9        5PZ        -0.00001  -0.00005   0.00001  -0.00000   0.00018
  10        6D 0        0.00002   0.00001   0.00000   0.00000  -0.00001
  11        6D+1        0.00001  -0.00001  -0.00000   0.00000  -0.00000
  12        6D-1        0.00000  -0.00001  -0.00000  -0.00000   0.00000
  13        6D+2       -0.00001   0.00001   0.00000  -0.00000  -0.00002
  14        6D-2       -0.00002  -0.00002   0.00000   0.00000   0.00004
  15 2   O  1S          0.00001   0.00000  -0.00000   0.00001   0.95587
  16        2S          0.00003   0.00000   0.00000   0.00003   0.01555
  17        3S         -0.00011  -0.00000  -0.00000  -0.00011  -0.00602
  18        4PX         0.00000   0.00000   0.00000  -0.00000   0.00023
  19        4PY        -0.00000   0.00000   0.00000   0.00000   0.00022
  20        4PZ        -0.00000   0.00000  -0.00000   0.00000   0.00031
  21        5PX        -0.00016  -0.00002  -0.00003   0.00011  -0.00025
  22        5PY         0.00012  -0.00000  -0.00000  -0.00015  -0.00034
  23        5PZ        -0.00001  -0.00000   0.00001  -0.00004  -0.00044
  24        6D 0        0.00002   0.00000  -0.00000   0.00001   0.00006
  25        6D+1       -0.00001  -0.00000  -0.00000   0.00001  -0.00000
  26        6D-1        0.00000  -0.00000   0.00000  -0.00001  -0.00002
  27        6D+2       -0.00001  -0.00000  -0.00000   0.00001   0.00000
  28        6D-2        0.00002  -0.00000  -0.00001   0.00002   0.00010
  29 3   O  1S          0.00000  -0.00000   0.00000   0.00001  -0.00606
  30        2S          0.00001   0.00000   0.00002   0.00003  -0.00001
  31        3S         -0.00002  -0.00000  -0.00009  -0.00013  -0.00016
  32        4PX         0.00000   0.00000   0.00000  -0.00000   0.00000
  33        4PY        -0.00000  -0.00000   0.00000  -0.00000  -0.00003
  34        4PZ         0.00000  -0.00000   0.00000  -0.00000   0.00000
  35        5PX        -0.00001  -0.00002  -0.00017   0.00008  -0.00002
  36        5PY         0.00002   0.00001  -0.00014   0.00013   0.00021
  37        5PZ        -0.00000   0.00000   0.00002   0.00004   0.00002
  38        6D 0       -0.00000  -0.00000   0.00001   0.00002   0.00001
  39        6D+1       -0.00000  -0.00000   0.00001  -0.00000  -0.00000
  40        6D-1       -0.00000  -0.00000   0.00001  -0.00001  -0.00001
  41        6D+2        0.00000  -0.00000  -0.00001   0.00001   0.00002
  42        6D-2        0.00000   0.00000  -0.00002  -0.00003   0.00002
  43 4   O  1S          0.00000   0.00001   0.00001   0.00000  -0.00039
  44        2S          0.00001   0.00003   0.00003   0.00001  -0.00011
  45        3S         -0.00002  -0.00011  -0.00012  -0.00002   0.00035
  46        4PX        -0.00000   0.00000  -0.00000  -0.00000   0.00001
  47        4PY        -0.00000  -0.00000   0.00000  -0.00000   0.00002
  48        4PZ         0.00000  -0.00000   0.00000  -0.00000  -0.00000
  49        5PX         0.00001  -0.00012   0.00014   0.00005  -0.00004
  50        5PY         0.00002   0.00015  -0.00011  -0.00002  -0.00016
  51        5PZ        -0.00000   0.00003   0.00002   0.00001  -0.00001
  52        6D 0       -0.00000   0.00001   0.00001   0.00000   0.00000
  53        6D+1        0.00000   0.00001  -0.00001  -0.00000   0.00000
  54        6D-1       -0.00000  -0.00001   0.00001  -0.00000  -0.00000
  55        6D+2        0.00000   0.00001  -0.00001  -0.00000  -0.00001
  56        6D-2       -0.00000   0.00002   0.00002   0.00000   0.00001
  57 5   Si 1S         -0.00046   1.00012   0.03808   0.00122  -0.00000
  58        2S         -0.00002  -0.00309  -0.00014  -0.00000   0.00005
  59        3S         -0.00009   0.00082  -0.00005   0.00001   0.00006
  60        4S          0.00011  -0.00032   0.00010  -0.00004  -0.00082
  61        5PX        -0.00000  -0.00003  -0.00000   0.00000  -0.00000
  62        5PY        -0.00000   0.00000   0.00000   0.00000  -0.00001
  63        5PZ        -0.00000  -0.00000   0.00000   0.00000   0.00000
  64        6PX         0.00004  -0.00008   0.00003  -0.00000   0.00006
  65        6PY         0.00006   0.00000  -0.00005  -0.00001   0.00011
  66        6PZ         0.00001  -0.00000  -0.00001  -0.00000   0.00002
  67        7PX        -0.00009   0.00005  -0.00010   0.00004   0.00054
  68        7PY        -0.00005   0.00000   0.00005   0.00001   0.00034
  69        7PZ         0.00011  -0.00000  -0.00012  -0.00002  -0.00031
  70        8D 0        0.00000  -0.00004  -0.00000   0.00000   0.00011
  71        8D+1        0.00000   0.00000  -0.00000  -0.00000  -0.00004
  72        8D-1       -0.00002   0.00003  -0.00001  -0.00001  -0.00003
  73        8D+2        0.00002  -0.00003   0.00002   0.00001   0.00005
  74        8D-2       -0.00001  -0.00000   0.00001   0.00000  -0.00008
  75 6   Si 1S         -0.00046   0.00535  -0.17221   0.98591   0.00001
  76        2S         -0.00002  -0.00001   0.00051  -0.00305  -0.00009
  77        3S         -0.00009   0.00003  -0.00022   0.00079   0.00003
  78        4S          0.00011  -0.00007   0.00016  -0.00030   0.00196
  79        5PX         0.00000  -0.00000  -0.00000   0.00003  -0.00002
  80        5PY        -0.00000  -0.00000   0.00000   0.00000   0.00003
  81        5PZ        -0.00000  -0.00000   0.00000  -0.00000   0.00000
  82        6PX        -0.00004   0.00001  -0.00005   0.00007   0.00030
  83        6PY         0.00006   0.00000  -0.00005  -0.00001  -0.00043
  84        6PZ         0.00001   0.00000  -0.00001  -0.00001  -0.00007
  85        7PX         0.00009  -0.00006   0.00010  -0.00003   0.00062
  86        7PY        -0.00005  -0.00000   0.00005   0.00001  -0.00055
  87        7PZ         0.00011   0.00000  -0.00012  -0.00003  -0.00037
  88        8D 0       -0.00000   0.00000   0.00000  -0.00004  -0.00019
  89        8D+1       -0.00000   0.00000   0.00000  -0.00000  -0.00004
  90        8D-1       -0.00002  -0.00000  -0.00002   0.00002   0.00004
  91        8D+2        0.00002   0.00001   0.00003  -0.00003  -0.00003
  92        8D-2        0.00001   0.00000  -0.00001  -0.00000  -0.00031
  93 7   Si 1S          1.00085   0.00046  -0.00010   0.00044   0.00000
  94        2S         -0.00309  -0.00002   0.00001  -0.00002  -0.00006
  95        3S          0.00083  -0.00008   0.00002  -0.00008   0.00001
  96        4S         -0.00034   0.00012  -0.00007   0.00010   0.00138
  97        5PX        -0.00000   0.00000   0.00000  -0.00000   0.00004
  98        5PY         0.00003   0.00000  -0.00000   0.00000  -0.00002
  99        5PZ        -0.00000  -0.00000   0.00000  -0.00000  -0.00000
 100        6PX        -0.00000  -0.00005  -0.00001   0.00005  -0.00053
 101        6PY         0.00008  -0.00003   0.00001  -0.00003   0.00021
 102        6PZ        -0.00001   0.00001  -0.00000   0.00001  -0.00002
 103        7PX         0.00000   0.00003   0.00001  -0.00003  -0.00075
 104        7PY        -0.00007   0.00008  -0.00003   0.00007   0.00038
 105        7PZ        -0.00017   0.00005   0.00006   0.00007   0.00028
 106        8D 0       -0.00005   0.00000   0.00000   0.00000  -0.00011
 107        8D+1        0.00000   0.00002   0.00000  -0.00002  -0.00005
 108        8D-1        0.00001   0.00001  -0.00001   0.00000  -0.00005
 109        8D+2        0.00004  -0.00002  -0.00000  -0.00002   0.00003
 110        8D-2        0.00000  -0.00001  -0.00000   0.00001  -0.00038
 111 8   Si 1S          0.00004  -0.03773   0.98519   0.17229   0.00000
 112        2S          0.00000   0.00010  -0.00304  -0.00055   0.00003
 113        3S          0.00001  -0.00011   0.00083   0.00006   0.00012
 114        4S         -0.00004   0.00012  -0.00036   0.00005  -0.00025
 115        5PX        -0.00000   0.00000   0.00000  -0.00000   0.00000
 116        5PY         0.00000  -0.00000  -0.00003  -0.00001   0.00000
 117        5PZ        -0.00000   0.00000   0.00001   0.00000   0.00000
 118        6PX         0.00000  -0.00005  -0.00001   0.00005  -0.00001
 119        6PY        -0.00001   0.00003  -0.00008   0.00002  -0.00004
 120        6PZ         0.00000  -0.00001   0.00002  -0.00001  -0.00001
 121        7PX        -0.00000   0.00003   0.00001  -0.00003   0.00017
 122        7PY         0.00002  -0.00009   0.00010  -0.00007   0.00043
 123        7PZ        -0.00008  -0.00004   0.00017  -0.00000   0.00032
 124        8D 0        0.00001   0.00000  -0.00005  -0.00001   0.00002
 125        8D+1        0.00000  -0.00002  -0.00000   0.00002   0.00001
 126        8D-1       -0.00001   0.00001  -0.00000   0.00001   0.00004
 127        8D+2       -0.00001  -0.00002   0.00004  -0.00001  -0.00004
 128        8D-2       -0.00000   0.00000   0.00000  -0.00000  -0.00002
 129 9   C  1S          0.00000   0.00001  -0.00000  -0.00000  -0.00001
 130        2S          0.00001   0.00002  -0.00000  -0.00000  -0.00008
 131        3S         -0.00007  -0.00009   0.00003   0.00001   0.00019
 132        4PX        -0.00000   0.00001  -0.00000   0.00000   0.00003
 133        4PY        -0.00000  -0.00000   0.00000   0.00000   0.00001
 134        4PZ         0.00000   0.00002   0.00000  -0.00000   0.00001
 135        5PX         0.00004   0.00000  -0.00000  -0.00001  -0.00028
 136        5PY        -0.00001  -0.00000  -0.00001   0.00000  -0.00002
 137        5PZ         0.00001   0.00005  -0.00003   0.00001  -0.00009
 138        6D 0       -0.00000  -0.00002  -0.00000  -0.00000   0.00001
 139        6D+1       -0.00000  -0.00003   0.00000   0.00000   0.00001
 140        6D-1       -0.00000   0.00001  -0.00000   0.00000   0.00001
 141        6D+2       -0.00000  -0.00000  -0.00000  -0.00000   0.00001
 142        6D-2       -0.00000   0.00001  -0.00000  -0.00000   0.00001
 143 10  H  1S         -0.00000   0.00001  -0.00001   0.00000   0.00000
 144        2S         -0.00001   0.00003   0.00002   0.00000   0.00012
 145        3PX        -0.00000  -0.00000  -0.00000   0.00000   0.00000
 146        3PY        -0.00000   0.00000  -0.00000   0.00000   0.00002
 147        3PZ        -0.00000  -0.00001  -0.00000  -0.00000   0.00000
 148 11  H  1S          0.00001  -0.00000   0.00001  -0.00000  -0.00006
 149        2S         -0.00001   0.00002   0.00002  -0.00000   0.00010
 150        3PX         0.00000  -0.00001   0.00000  -0.00000  -0.00000
 151        3PY        -0.00000   0.00000   0.00000   0.00000   0.00000
 152        3PZ         0.00000  -0.00001  -0.00000  -0.00000  -0.00001
 153 12  C  1S         -0.00000   0.00001   0.00000   0.00000   0.00000
 154        2S         -0.00000   0.00002   0.00001   0.00000  -0.00000
 155        3S          0.00003  -0.00010  -0.00007  -0.00001  -0.00013
 156        4PX        -0.00000   0.00001  -0.00000   0.00000   0.00001
 157        4PY        -0.00000   0.00000   0.00000   0.00000   0.00001
 158        4PZ        -0.00000  -0.00002  -0.00000   0.00000   0.00000
 159        5PX        -0.00001   0.00001   0.00005  -0.00000  -0.00004
 160        5PY         0.00001   0.00000   0.00001  -0.00000  -0.00002
 161        5PZ         0.00002  -0.00005  -0.00000  -0.00001  -0.00006
 162        6D 0       -0.00000  -0.00001  -0.00000  -0.00000   0.00000
 163        6D+1       -0.00000   0.00004   0.00000   0.00000   0.00000
 164        6D-1       -0.00000   0.00001   0.00000   0.00000  -0.00000
 165        6D+2        0.00000  -0.00001  -0.00000  -0.00000  -0.00000
 166        6D-2        0.00001  -0.00001   0.00000  -0.00000   0.00001
 167 13  H  1S         -0.00001   0.00001  -0.00000   0.00000   0.00002
 168        2S          0.00001   0.00003  -0.00001  -0.00000  -0.00009
 169        3PX        -0.00000  -0.00001  -0.00000   0.00000   0.00001
 170        3PY         0.00000  -0.00000   0.00000  -0.00000  -0.00000
 171        3PZ         0.00000   0.00001   0.00000   0.00000  -0.00001
 172 14  H  1S          0.00001   0.00000   0.00000   0.00000   0.00000
 173        2S          0.00001   0.00002   0.00001  -0.00000   0.00002
 174        3PX        -0.00000  -0.00000  -0.00000   0.00000  -0.00000
 175        3PY        -0.00000  -0.00000  -0.00000   0.00000   0.00001
 176        3PZ        -0.00000   0.00001   0.00000   0.00000   0.00001
 177 15  H  1S          0.00001  -0.00000   0.00001  -0.00000  -0.00003
 178        2S          0.00002   0.00002  -0.00001  -0.00001   0.00002
 179        3PX         0.00000  -0.00001   0.00000  -0.00000  -0.00000
 180        3PY        -0.00000  -0.00000   0.00000   0.00000   0.00000
 181        3PZ         0.00000   0.00000  -0.00000  -0.00000   0.00001
 182 16  C  1S          0.00000   0.00000   0.00000   0.00000  -0.00001
 183        2S          0.00000   0.00001   0.00001   0.00001  -0.00004
 184        3S         -0.00003  -0.00004   0.00001  -0.00004   0.00022
 185        4PX         0.00000   0.00000   0.00000  -0.00000   0.00000
 186        4PY         0.00000  -0.00000   0.00001   0.00000   0.00001
 187        4PZ        -0.00000   0.00000  -0.00002  -0.00000  -0.00000
 188        5PX        -0.00000  -0.00000  -0.00000   0.00000   0.00004
 189        5PY         0.00000   0.00002  -0.00004   0.00002  -0.00018
 190        5PZ        -0.00002  -0.00000  -0.00001  -0.00000   0.00001
 191        6D 0       -0.00000   0.00000  -0.00003  -0.00000  -0.00000
 192        6D+1       -0.00000  -0.00000  -0.00000   0.00000  -0.00000
 193        6D-1        0.00000  -0.00000   0.00002   0.00000   0.00001
 194        6D+2       -0.00000   0.00000  -0.00000   0.00000  -0.00001
 195        6D-2        0.00000   0.00000   0.00000  -0.00000   0.00001
 196 17  H  1S          0.00000   0.00000   0.00000  -0.00000   0.00000
 197        2S         -0.00001   0.00000   0.00004   0.00000   0.00011
 198        3PX        -0.00000   0.00000   0.00000  -0.00000   0.00001
 199        3PY         0.00000  -0.00000  -0.00000  -0.00000  -0.00000
 200        3PZ         0.00000   0.00000   0.00001   0.00000   0.00001
 201 18  H  1S          0.00000  -0.00000   0.00000   0.00000  -0.00000
 202        2S         -0.00001  -0.00000   0.00004   0.00001  -0.00004
 203        3PX         0.00000   0.00000  -0.00000  -0.00000  -0.00000
 204        3PY         0.00000   0.00000  -0.00000  -0.00000   0.00002
 205        3PZ         0.00000  -0.00000   0.00001   0.00000  -0.00001
 206 19  H  1S         -0.00000   0.00001  -0.00001   0.00000  -0.00003
 207        2S         -0.00001   0.00000   0.00001   0.00001  -0.00007
 208        3PX         0.00000   0.00000   0.00000  -0.00000   0.00000
 209        3PY        -0.00000   0.00000  -0.00001   0.00000  -0.00002
 210        3PZ        -0.00000  -0.00000   0.00001   0.00000  -0.00001
 211 20  C  1S         -0.00000   0.00000   0.00001   0.00000   0.00000
 212        2S         -0.00001   0.00000   0.00004   0.00001   0.00003
 213        3S          0.00003  -0.00000  -0.00016  -0.00004  -0.00020
 214        4PX        -0.00000   0.00000   0.00000  -0.00000   0.00000
 215        4PY         0.00000  -0.00000   0.00001   0.00000   0.00000
 216        4PZ        -0.00000  -0.00000   0.00002   0.00000  -0.00000
 217        5PX         0.00000  -0.00002  -0.00000   0.00002  -0.00002
 218        5PY        -0.00003   0.00001   0.00007   0.00003   0.00010
 219        5PZ         0.00000  -0.00001   0.00005   0.00000   0.00009
 220        6D 0        0.00000  -0.00000  -0.00000  -0.00000  -0.00000
 221        6D+1       -0.00000  -0.00000  -0.00000   0.00000   0.00000
 222        6D-1        0.00000   0.00000  -0.00004  -0.00001  -0.00001
 223        6D+2       -0.00000  -0.00000   0.00002   0.00000   0.00001
 224        6D-2       -0.00000  -0.00001  -0.00000   0.00001   0.00000
 225 21  H  1S          0.00000   0.00001   0.00001  -0.00001   0.00002
 226        2S          0.00001   0.00001   0.00001   0.00000  -0.00010
 227        3PX        -0.00000   0.00000   0.00000   0.00000   0.00000
 228        3PY         0.00000  -0.00000  -0.00001  -0.00000   0.00001
 229        3PZ        -0.00000   0.00000  -0.00000  -0.00000   0.00000
 230 22  H  1S          0.00000  -0.00001   0.00000   0.00001  -0.00000
 231        2S          0.00001   0.00000   0.00001   0.00001  -0.00003
 232        3PX         0.00000  -0.00000  -0.00000  -0.00000   0.00000
 233        3PY         0.00000  -0.00000  -0.00001  -0.00000  -0.00000
 234        3PZ        -0.00000  -0.00000  -0.00001   0.00000  -0.00000
 235 23  H  1S         -0.00001   0.00001   0.00000   0.00001  -0.00000
 236        2S          0.00000   0.00001   0.00000   0.00001  -0.00004
 237        3PX        -0.00000   0.00000   0.00000  -0.00000   0.00000
 238        3PY        -0.00000   0.00000  -0.00001  -0.00000  -0.00000
 239        3PZ        -0.00000  -0.00000  -0.00000  -0.00000  -0.00000
 240 24  C  1S         -0.00000  -0.00000   0.00000   0.00001   0.00001
 241        2S         -0.00000  -0.00000   0.00001   0.00003   0.00013
 242        3S          0.00003   0.00000  -0.00004  -0.00011  -0.00031
 243        4PX         0.00000  -0.00000   0.00000  -0.00001   0.00004
 244        4PY        -0.00000   0.00000  -0.00000   0.00000  -0.00003
 245        4PZ        -0.00000   0.00000   0.00000  -0.00002   0.00001
 246        5PX         0.00001   0.00001  -0.00004  -0.00002  -0.00038
 247        5PY         0.00001  -0.00000   0.00001   0.00000   0.00017
 248        5PZ         0.00002  -0.00001   0.00000  -0.00005  -0.00017
 249        6D 0       -0.00000  -0.00000   0.00000  -0.00001  -0.00000
 250        6D+1        0.00000  -0.00000   0.00001  -0.00003  -0.00002
 251        6D-1       -0.00000   0.00000  -0.00000   0.00001   0.00000
 252        6D+2        0.00000   0.00000  -0.00000  -0.00001  -0.00001
 253        6D-2       -0.00001   0.00000  -0.00000   0.00001   0.00002
 254 25  H  1S          0.00001  -0.00000   0.00000   0.00000   0.00003
 255        2S          0.00001  -0.00000  -0.00000   0.00002  -0.00018
 256        3PX         0.00000  -0.00000   0.00000   0.00000  -0.00000
 257        3PY         0.00000   0.00000  -0.00000  -0.00000  -0.00003
 258        3PZ        -0.00000   0.00000   0.00000   0.00001  -0.00001
 259 26  H  1S         -0.00001   0.00000  -0.00000   0.00001  -0.00004
 260        2S          0.00001   0.00000  -0.00002   0.00003  -0.00003
 261        3PX         0.00000  -0.00000  -0.00000   0.00001   0.00002
 262        3PY         0.00000  -0.00000   0.00000  -0.00000   0.00000
 263        3PZ         0.00000   0.00000  -0.00000   0.00001   0.00002
 264 27  H  1S          0.00001  -0.00000   0.00001  -0.00000   0.00006
 265        2S          0.00002  -0.00001  -0.00001   0.00002  -0.00016
 266        3PX        -0.00000   0.00000  -0.00000   0.00001   0.00001
 267        3PY        -0.00000   0.00000   0.00000  -0.00000  -0.00001
 268        3PZ         0.00000   0.00000  -0.00000   0.00000  -0.00002
 269 28  C  1S          0.00000  -0.00000  -0.00000   0.00001   0.00001
 270        2S          0.00001  -0.00000  -0.00001   0.00002   0.00010
 271        3S         -0.00007   0.00000   0.00005  -0.00009  -0.00017
 272        4PX         0.00000  -0.00000   0.00000  -0.00001   0.00003
 273        4PY        -0.00000  -0.00000   0.00000  -0.00000  -0.00002
 274        4PZ         0.00000  -0.00000  -0.00000   0.00002  -0.00002
 275        5PX        -0.00004   0.00001   0.00000  -0.00000  -0.00027
 276        5PY        -0.00001   0.00000  -0.00001  -0.00000   0.00011
 277        5PZ         0.00001   0.00001  -0.00004   0.00004   0.00016
 278        6D 0       -0.00000  -0.00000  -0.00000  -0.00002  -0.00001
 279        6D+1        0.00000   0.00000  -0.00001   0.00003   0.00003
 280        6D-1       -0.00000   0.00000  -0.00000   0.00001  -0.00002
 281        6D+2       -0.00000   0.00000   0.00000  -0.00000  -0.00002
 282        6D-2        0.00000  -0.00000   0.00001  -0.00001   0.00004
 283 29  H  1S          0.00000  -0.00000   0.00000   0.00000  -0.00003
 284        2S          0.00000  -0.00000   0.00001   0.00003   0.00001
 285        3PX         0.00000  -0.00000   0.00000   0.00000   0.00002
 286        3PY        -0.00000  -0.00000   0.00000   0.00000  -0.00000
 287        3PZ        -0.00000  -0.00000   0.00000  -0.00001  -0.00001
 288 30  H  1S         -0.00000   0.00000  -0.00001   0.00001   0.00001
 289        2S         -0.00001   0.00000   0.00001   0.00003  -0.00014
 290        3PX         0.00000  -0.00000  -0.00000   0.00000  -0.00001
 291        3PY        -0.00000   0.00000  -0.00000   0.00000  -0.00004
 292        3PZ        -0.00000   0.00000  -0.00000  -0.00001   0.00000
 293 31  H  1S          0.00001  -0.00000   0.00001  -0.00000   0.00005
 294        2S         -0.00001  -0.00001   0.00001   0.00002  -0.00009
 295        3PX        -0.00000   0.00000  -0.00000   0.00001   0.00000
 296        3PY        -0.00000  -0.00000   0.00000   0.00000  -0.00001
 297        3PZ         0.00000   0.00000  -0.00000  -0.00001   0.00002
 298 32  C  1S          0.00001   0.00000  -0.00000   0.00000   0.00001
 299        2S          0.00004   0.00000  -0.00001   0.00000   0.00005
 300        3S         -0.00016  -0.00001   0.00004   0.00000  -0.00003
 301        4PX         0.00000   0.00000   0.00000  -0.00000  -0.00003
 302        4PY        -0.00001   0.00000  -0.00000   0.00000   0.00002
 303        4PZ        -0.00002  -0.00000   0.00000   0.00000   0.00001
 304        5PX         0.00000  -0.00002  -0.00000   0.00002   0.00014
 305        5PY        -0.00007  -0.00001   0.00003  -0.00000  -0.00013
 306        5PZ        -0.00006   0.00001   0.00000   0.00001  -0.00009
 307        6D 0       -0.00001  -0.00000   0.00000  -0.00000   0.00000
 308        6D+1        0.00000   0.00000   0.00000  -0.00000  -0.00001
 309        6D-1       -0.00004   0.00000   0.00000   0.00000  -0.00001
 310        6D+2        0.00001  -0.00000  -0.00000  -0.00000   0.00000
 311        6D-2        0.00000   0.00001   0.00000  -0.00001   0.00002
 312 33  H  1S          0.00000   0.00001  -0.00000   0.00001   0.00002
 313        2S          0.00000   0.00001   0.00000   0.00001  -0.00008
 314        3PX        -0.00000   0.00000   0.00000  -0.00000  -0.00001
 315        3PY         0.00001  -0.00000   0.00000  -0.00000   0.00001
 316        3PZ         0.00000   0.00000  -0.00000   0.00000  -0.00002
 317 34  H  1S          0.00001   0.00001   0.00000  -0.00001  -0.00004
 318        2S          0.00001   0.00001   0.00001   0.00001   0.00007
 319        3PX         0.00000   0.00000  -0.00000   0.00000  -0.00000
 320        3PY         0.00001   0.00000  -0.00000   0.00000   0.00002
 321        3PZ         0.00001  -0.00000  -0.00000   0.00000   0.00002
 322 35  H  1S          0.00001  -0.00001  -0.00000   0.00001   0.00004
 323        2S          0.00001   0.00000   0.00000   0.00001  -0.00014
 324        3PX        -0.00000  -0.00000   0.00000   0.00000  -0.00002
 325        3PY         0.00001   0.00000  -0.00000   0.00000  -0.00002
 326        3PZ         0.00001   0.00000   0.00000  -0.00000  -0.00001
 327 36  C  1S          0.00000   0.00000   0.00000   0.00000   0.00001
 328        2S          0.00001   0.00001   0.00000   0.00001   0.00011
 329        3S         -0.00001  -0.00005  -0.00002  -0.00005  -0.00034
 330        4PX         0.00000   0.00000   0.00000  -0.00000  -0.00003
 331        4PY        -0.00001   0.00000  -0.00000   0.00000   0.00002
 332        4PZ         0.00002  -0.00000   0.00000   0.00000  -0.00001
 333        5PX        -0.00000  -0.00000  -0.00000   0.00000   0.00023
 334        5PY         0.00004  -0.00003   0.00000  -0.00003  -0.00026
 335        5PZ         0.00002   0.00000   0.00002   0.00001   0.00024
 336        6D 0       -0.00003   0.00000  -0.00000  -0.00000  -0.00001
 337        6D+1       -0.00000   0.00000   0.00000  -0.00000  -0.00004
 338        6D-1        0.00003  -0.00000   0.00000  -0.00000   0.00003
 339        6D+2        0.00000   0.00000  -0.00000   0.00000   0.00001
 340        6D-2       -0.00000  -0.00000  -0.00000   0.00000   0.00006
 341 37  H  1S          0.00000   0.00000   0.00000  -0.00000   0.00002
 342        2S          0.00004   0.00000  -0.00000  -0.00001  -0.00015
 343        3PX         0.00000   0.00000   0.00000  -0.00000  -0.00003
 344        3PY         0.00000   0.00000   0.00000  -0.00000  -0.00001
 345        3PZ        -0.00001  -0.00000  -0.00000   0.00000   0.00001
 346 38  H  1S          0.00000  -0.00000   0.00000   0.00000  -0.00002
 347        2S          0.00004  -0.00001  -0.00000   0.00000  -0.00003
 348        3PX        -0.00000   0.00000   0.00000  -0.00000  -0.00001
 349        3PY         0.00000  -0.00000  -0.00000   0.00000   0.00002
 350        3PZ        -0.00001   0.00000  -0.00000  -0.00000  -0.00002
 351 39  H  1S         -0.00001   0.00001  -0.00000   0.00001   0.00004
 352        2S          0.00002   0.00000  -0.00001  -0.00000  -0.00013
 353        3PX        -0.00000   0.00000   0.00000  -0.00000  -0.00001
 354        3PY         0.00001  -0.00000   0.00000  -0.00000   0.00001
 355        3PZ        -0.00001   0.00000   0.00000   0.00000   0.00002
 356 40  H  1S          0.00000   0.00000   0.00000   0.00000   0.00002
 357        2S          0.00000   0.00002   0.00002  -0.00000   0.00001
 358        3PX        -0.00000  -0.00000  -0.00000   0.00000   0.00002
 359        3PY        -0.00000   0.00000   0.00000  -0.00000  -0.00001
 360        3PZ        -0.00000  -0.00001   0.00000  -0.00000   0.00001
                           6         7         8         9        10
                           O         O         O         O         O
     Eigenvalues --   -20.53391 -20.53341 -20.53337 -11.20525 -11.20504
   1 1   O  1S          0.95586   0.00184   0.00709   0.00001  -0.00000
   2        2S          0.01559  -0.00007   0.00017   0.00009  -0.00005
   3        3S         -0.00611   0.00034  -0.00009  -0.00036   0.00019
   4        4PX        -0.00024   0.00001  -0.00000  -0.00001  -0.00000
   5        4PY         0.00022  -0.00001   0.00003  -0.00001  -0.00001
   6        4PZ         0.00031  -0.00000   0.00000  -0.00001   0.00002
   7        5PX         0.00038  -0.00005   0.00001   0.00023   0.00000
   8        5PY        -0.00034   0.00009  -0.00022   0.00029   0.00009
   9        5PZ        -0.00041   0.00003  -0.00003  -0.00010  -0.00010
  10        6D 0        0.00007   0.00000   0.00001   0.00001   0.00000
  11        6D+1        0.00000  -0.00000  -0.00000   0.00001  -0.00000
  12        6D-1       -0.00002  -0.00000  -0.00001   0.00001  -0.00000
  13        6D+2       -0.00001  -0.00000   0.00002   0.00000  -0.00000
  14        6D-2       -0.00009  -0.00000   0.00002   0.00001  -0.00000
  15 2   O  1S          0.28375   0.00680   0.00320   0.00001  -0.00000
  16        2S          0.00469   0.00018  -0.00003   0.00009  -0.00005
  17        3S         -0.00196  -0.00017   0.00032  -0.00036   0.00019
  18        4PX         0.00010   0.00001  -0.00001   0.00001   0.00000
  19        4PY         0.00007   0.00003  -0.00000  -0.00001  -0.00001
  20        4PZ         0.00009   0.00000  -0.00000  -0.00001   0.00002
  21        5PX        -0.00031  -0.00002   0.00005  -0.00023  -0.00000
  22        5PY        -0.00012  -0.00023   0.00004   0.00029   0.00009
  23        5PZ        -0.00007  -0.00003   0.00002  -0.00010  -0.00010
  24        6D 0        0.00003   0.00001   0.00000   0.00001   0.00000
  25        6D+1        0.00000   0.00000   0.00000  -0.00001   0.00000
  26        6D-1       -0.00001  -0.00001  -0.00000   0.00001  -0.00000
  27        6D+2       -0.00002   0.00002   0.00000   0.00000  -0.00000
  28        6D-2        0.00001  -0.00002  -0.00000  -0.00001   0.00000
  29 3   O  1S         -0.00454   0.99092   0.11083  -0.00000   0.00001
  30        2S         -0.00014   0.01613   0.00188  -0.00004   0.00009
  31        3S          0.00032  -0.00626  -0.00085   0.00011  -0.00038
  32        4PX        -0.00001   0.00024   0.00006   0.00000   0.00001
  33        4PY         0.00001  -0.00026  -0.00003   0.00002   0.00001
  34        4PZ        -0.00000  -0.00032  -0.00003  -0.00002   0.00001
  35        5PX         0.00004  -0.00031  -0.00028  -0.00002  -0.00022
  36        5PY        -0.00005   0.00040   0.00005  -0.00013  -0.00025
  37        5PZ        -0.00000   0.00045   0.00002   0.00010   0.00013
  38        6D 0        0.00001   0.00007   0.00002   0.00000   0.00000
  39        6D+1       -0.00000   0.00001  -0.00000  -0.00000   0.00001
  40        6D-1       -0.00001  -0.00001  -0.00000  -0.00000   0.00001
  41        6D+2        0.00001   0.00000  -0.00002  -0.00000   0.00000
  42        6D-2        0.00000  -0.00010   0.00000  -0.00001   0.00001
  43 4   O  1S         -0.00724  -0.11085   0.99092  -0.00000   0.00001
  44        2S         -0.00008  -0.00173   0.01615  -0.00004   0.00009
  45        3S          0.00004   0.00056  -0.00629   0.00011  -0.00038
  46        4PX         0.00000  -0.00000  -0.00025  -0.00000  -0.00001
  47        4PY        -0.00002   0.00003  -0.00026   0.00002   0.00001
  48        4PZ         0.00000   0.00004  -0.00032  -0.00002   0.00001
  49        5PX        -0.00001   0.00020   0.00036   0.00002   0.00022
  50        5PY         0.00015  -0.00004   0.00040  -0.00013  -0.00025
  51        5PZ         0.00002  -0.00008   0.00043   0.00010   0.00012
  52        6D 0        0.00001   0.00000   0.00007   0.00000   0.00000
  53        6D+1        0.00000   0.00001  -0.00001   0.00000  -0.00001
  54        6D-1       -0.00001  -0.00000  -0.00001  -0.00000   0.00001
  55        6D+2        0.00002  -0.00002  -0.00000  -0.00000   0.00000
  56        6D-2       -0.00002  -0.00003   0.00009   0.00001  -0.00001
  57 5   Si 1S          0.00001   0.00000   0.00001   0.00000   0.00000
  58        2S         -0.00007   0.00003  -0.00008   0.00006   0.00005
  59        3S          0.00008   0.00007   0.00008   0.00018   0.00015
  60        4S          0.00180  -0.00047   0.00195  -0.00080  -0.00066
  61        5PX         0.00002   0.00000   0.00003  -0.00000  -0.00000
  62        5PY         0.00003   0.00000  -0.00003  -0.00000   0.00000
  63        5PZ         0.00000  -0.00000  -0.00000  -0.00000   0.00000
  64        6PX        -0.00032  -0.00001  -0.00034   0.00000  -0.00000
  65        6PY        -0.00044  -0.00005   0.00044   0.00000  -0.00001
  66        6PZ        -0.00007  -0.00001   0.00003   0.00004  -0.00004
  67        7PX        -0.00038   0.00045  -0.00049   0.00051   0.00040
  68        7PY        -0.00043  -0.00021   0.00050   0.00038  -0.00033
  69        7PZ        -0.00064   0.00017   0.00044  -0.00079   0.00076
  70        8D 0       -0.00016   0.00008  -0.00018   0.00004   0.00005
  71        8D+1        0.00003  -0.00001  -0.00001  -0.00007   0.00004
  72        8D-1        0.00003  -0.00002  -0.00000  -0.00004  -0.00004
  73        8D+2       -0.00001   0.00005  -0.00002   0.00001  -0.00000
  74        8D-2        0.00032   0.00004  -0.00032  -0.00005   0.00005
  75 6   Si 1S          0.00000   0.00001   0.00000   0.00000   0.00000
  76        2S         -0.00000  -0.00008   0.00001   0.00006   0.00005
  77        3S          0.00009   0.00006   0.00009   0.00018   0.00015
  78        4S          0.00029   0.00201  -0.00003  -0.00080  -0.00066
  79        5PX        -0.00001  -0.00002  -0.00001   0.00000   0.00000
  80        5PY         0.00001  -0.00003  -0.00000  -0.00000   0.00000
  81        5PZ         0.00000   0.00000  -0.00000  -0.00000   0.00000
  82        6PX         0.00013   0.00033   0.00008  -0.00000   0.00000
  83        6PY        -0.00015   0.00044   0.00005   0.00000  -0.00001
  84        6PZ        -0.00002   0.00004  -0.00000   0.00004  -0.00004
  85        7PX        -0.00025   0.00057  -0.00033  -0.00051  -0.00040
  86        7PY         0.00005   0.00054  -0.00010   0.00038  -0.00034
  87        7PZ        -0.00060   0.00039   0.00027  -0.00079   0.00076
  88        8D 0        0.00000  -0.00019   0.00004   0.00004   0.00005
  89        8D+1        0.00001   0.00001   0.00001   0.00006  -0.00004
  90        8D-1       -0.00001   0.00000  -0.00002  -0.00004  -0.00004
  91        8D+2        0.00004  -0.00003   0.00004   0.00001  -0.00000
  92        8D-2       -0.00010   0.00032   0.00003   0.00005  -0.00005
  93 7   Si 1S          0.00001   0.00000   0.00000   0.00000   0.00000
  94        2S         -0.00012   0.00004   0.00004  -0.00016  -0.00000
  95        3S          0.00002   0.00014   0.00018  -0.00021   0.00000
  96        4S          0.00255  -0.00030  -0.00038   0.00427   0.00020
  97        5PX        -0.00002   0.00000  -0.00000  -0.00000   0.00000
  98        5PY        -0.00003  -0.00001  -0.00001   0.00002  -0.00000
  99        5PZ        -0.00000  -0.00000  -0.00000  -0.00003  -0.00000
 100        6PX         0.00029  -0.00001   0.00001   0.00000  -0.00000
 101        6PY         0.00038   0.00006   0.00008  -0.00025   0.00002
 102        6PZ        -0.00003   0.00001   0.00001   0.00048   0.00003
 103        7PX         0.00040   0.00015  -0.00012  -0.00000   0.00000
 104        7PY         0.00071  -0.00052  -0.00065  -0.00017  -0.00009
 105        7PZ         0.00052  -0.00029  -0.00036   0.00222  -0.00012
 106        8D 0       -0.00020   0.00005   0.00006   0.00013   0.00001
 107        8D+1        0.00003  -0.00000   0.00000   0.00000  -0.00000
 108        8D-1       -0.00010   0.00003   0.00004  -0.00024   0.00005
 109        8D+2        0.00005  -0.00005  -0.00007   0.00009  -0.00001
 110        8D-2        0.00021   0.00000  -0.00000   0.00000  -0.00000
 111 8   Si 1S          0.00001   0.00001   0.00001  -0.00000   0.00000
 112        2S          0.00006  -0.00008  -0.00010  -0.00001  -0.00015
 113        3S          0.00023   0.00003   0.00004  -0.00002  -0.00020
 114        4S         -0.00047   0.00182   0.00228   0.00025   0.00420
 115        5PX        -0.00000   0.00003  -0.00003   0.00000   0.00000
 116        5PY         0.00001   0.00002   0.00003   0.00000  -0.00001
 117        5PZ         0.00000  -0.00000  -0.00000   0.00000   0.00004
 118        6PX         0.00000  -0.00047   0.00038  -0.00000  -0.00000
 119        6PY        -0.00008  -0.00028  -0.00034  -0.00001   0.00019
 120        6PZ        -0.00002   0.00005   0.00006  -0.00002  -0.00051
 121        7PX        -0.00009  -0.00067   0.00054   0.00000  -0.00000
 122        7PY         0.00080  -0.00050  -0.00062  -0.00012  -0.00004
 123        7PZ         0.00058  -0.00030  -0.00038   0.00027  -0.00219
 124        8D 0        0.00003  -0.00012  -0.00015  -0.00004   0.00018
 125        8D+1       -0.00000   0.00001  -0.00001  -0.00000   0.00000
 126        8D-1        0.00007  -0.00009  -0.00011   0.00005  -0.00019
 127        8D+2       -0.00007   0.00004   0.00006   0.00002   0.00010
 128        8D-2        0.00001   0.00035  -0.00028   0.00000   0.00000
 129 9   C  1S          0.00001  -0.00000   0.00002  -0.00031   0.00007
 130        2S          0.00007  -0.00001   0.00014  -0.00011   0.00005
 131        3S         -0.00008  -0.00007  -0.00039   0.00056  -0.00031
 132        4PX        -0.00001   0.00001  -0.00003   0.00002  -0.00000
 133        4PY        -0.00002  -0.00000   0.00003  -0.00001  -0.00001
 134        4PZ        -0.00001   0.00000  -0.00001   0.00000  -0.00000
 135        5PX         0.00015  -0.00008   0.00036  -0.00031   0.00011
 136        5PY         0.00012  -0.00001  -0.00020   0.00009   0.00004
 137        5PZ         0.00014   0.00007   0.00028  -0.00005   0.00013
 138        6D 0       -0.00001   0.00000  -0.00001   0.00000   0.00000
 139        6D+1       -0.00003  -0.00001  -0.00002  -0.00000  -0.00001
 140        6D-1       -0.00002  -0.00000   0.00001  -0.00001   0.00000
 141        6D+2       -0.00001  -0.00000  -0.00001   0.00001  -0.00001
 142        6D-2       -0.00004  -0.00000   0.00003   0.00000   0.00000
 143 10  H  1S          0.00001   0.00002  -0.00003   0.00002   0.00003
 144        2S         -0.00009  -0.00007  -0.00007   0.00008  -0.00010
 145        3PX         0.00001   0.00001  -0.00001   0.00001  -0.00000
 146        3PY        -0.00003   0.00000  -0.00000   0.00000  -0.00000
 147        3PZ         0.00001   0.00001  -0.00002  -0.00001   0.00001
 148 11  H  1S          0.00002  -0.00003   0.00005  -0.00006   0.00000
 149        2S         -0.00005  -0.00001  -0.00020  -0.00008  -0.00002
 150        3PX        -0.00000  -0.00001  -0.00001  -0.00001   0.00000
 151        3PY        -0.00001  -0.00000   0.00000   0.00001  -0.00000
 152        3PZ         0.00001  -0.00000   0.00002   0.00001  -0.00001
 153 12  C  1S          0.00002  -0.00000   0.00001   0.00005  -0.00025
 154        2S          0.00015  -0.00003   0.00009   0.00004  -0.00009
 155        3S         -0.00045   0.00002  -0.00017  -0.00030   0.00045
 156        4PX        -0.00003   0.00002  -0.00002  -0.00000   0.00002
 157        4PY        -0.00003  -0.00000   0.00003   0.00001   0.00001
 158        4PZ         0.00001  -0.00001   0.00001   0.00000  -0.00000
 159        5PX         0.00042  -0.00015   0.00023   0.00015  -0.00027
 160        5PY         0.00020   0.00002  -0.00012  -0.00005  -0.00010
 161        5PZ        -0.00024  -0.00001  -0.00014  -0.00012   0.00000
 162        6D 0       -0.00000   0.00000  -0.00001  -0.00000   0.00000
 163        6D+1        0.00002   0.00000   0.00003   0.00001   0.00000
 164        6D-1        0.00000   0.00000  -0.00001   0.00000  -0.00001
 165        6D+2       -0.00001   0.00000  -0.00002  -0.00001   0.00001
 166        6D-2       -0.00003  -0.00001   0.00004  -0.00001  -0.00000
 167 13  H  1S         -0.00003   0.00001   0.00002   0.00003   0.00003
 168        2S         -0.00009   0.00005  -0.00013  -0.00011   0.00007
 169        3PX        -0.00001   0.00000   0.00002  -0.00000   0.00001
 170        3PY         0.00000  -0.00001   0.00003   0.00000  -0.00000
 171        3PZ         0.00002  -0.00000  -0.00000  -0.00001   0.00000
 172 14  H  1S          0.00003   0.00002  -0.00002  -0.00001  -0.00003
 173        2S         -0.00020  -0.00002   0.00001  -0.00009  -0.00000
 174        3PX         0.00000   0.00002  -0.00001  -0.00000   0.00002
 175        3PY        -0.00003   0.00001   0.00001  -0.00000   0.00001
 176        3PZ        -0.00001  -0.00000   0.00001   0.00000  -0.00000
 177 15  H  1S          0.00006  -0.00004   0.00003   0.00001  -0.00005
 178        2S         -0.00018   0.00007  -0.00005  -0.00004  -0.00003
 179        3PX        -0.00001  -0.00000  -0.00000   0.00000  -0.00000
 180        3PY        -0.00001  -0.00000   0.00001   0.00001  -0.00000
 181        3PZ        -0.00002   0.00001  -0.00001   0.00001  -0.00000
 182 16  C  1S         -0.00001   0.00002   0.00002   0.00026   0.99733
 183        2S         -0.00008   0.00015   0.00018   0.00001   0.01903
 184        3S          0.00041  -0.00045  -0.00057   0.00007  -0.00979
 185        4PX        -0.00000  -0.00003   0.00002   0.00000  -0.00000
 186        4PY         0.00002  -0.00003  -0.00003  -0.00000   0.00018
 187        4PZ        -0.00001   0.00002   0.00002   0.00000  -0.00055
 188        5PX        -0.00002   0.00021  -0.00017  -0.00000  -0.00001
 189        5PY        -0.00034   0.00030   0.00037   0.00006   0.00068
 190        5PZ         0.00002  -0.00037  -0.00047   0.00008  -0.00126
 191        6D 0       -0.00000  -0.00002  -0.00003   0.00001  -0.00033
 192        6D+1        0.00000   0.00004  -0.00003   0.00000  -0.00000
 193        6D-1        0.00001   0.00003   0.00004  -0.00000   0.00022
 194        6D+2       -0.00001   0.00001   0.00001   0.00000   0.00004
 195        6D-2       -0.00000  -0.00005   0.00004  -0.00000   0.00000
[...]
  58         O                -0.555022          1.108500
  59         O                -0.551788          0.966517
  60         O                -0.548816          1.085199
  61         O                -0.539691          1.036278
  62         O                -0.537751          1.009926
  63         O                -0.536348          0.999249
  64         O                -0.536122          0.969323
  65         O                -0.535899          0.963953
  66         O                -0.533685          1.194156
  67         O                -0.526220          1.324385
  68         O                -0.525520          1.450907
  69         O                -0.520933          1.300267
  70         O                -0.515566          1.367504
  71         O                -0.511516          1.443090
  72         O                -0.500413          1.858103
  73         O                -0.481945          1.785170
  74         O                -0.478854          1.533406
  75         O                -0.474856          1.916120
  76         O                -0.469294          2.221543
  77         O                -0.434012          1.369683
  78         O                -0.410943          1.533944
  79         O                -0.408897          1.546676
  80         O                -0.393935          1.585465
  81         V                 0.146863          0.624426
  82         V                 0.174296          0.640834
  83         V                 0.179953          0.675602
  84         V                 0.192477          0.683718
  85         V                 0.208832          0.701402
  86         V                 0.214353          0.603048
  87         V                 0.226265          0.668517
  88         V                 0.230933          0.948101
  89         V                 0.232280          1.030444
  90         V                 0.234868          0.633847
  91         V                 0.235081          0.714824
  92         V                 0.240156          0.559958
  93         V                 0.240888          0.615499
  94         V                 0.254360          0.832864
  95         V                 0.256305          0.995652
  96         V                 0.257627          0.611578
  97         V                 0.259461          0.795797
  98         V                 0.261716          1.226942
  99         V                 0.267893          0.749840
 100         V                 0.272204          0.786360
 101         V                 0.272940          0.793548
 102         V                 0.278633          0.637106
 103         V                 0.284591          0.637419
 104         V                 0.286262          0.737573
 105         V                 0.292621          0.662537
 106         V                 0.293223          0.695209
 107         V                 0.296487          0.673905
 108         V                 0.305273          1.002655
 109         V                 0.311151          0.942672
 110         V                 0.325377          0.855506
 111         V                 0.327123          1.006572
 112         V                 0.347869          0.974842
 113         V                 0.357853          2.341067
 114         V                 0.367451          1.094931
 115         V                 0.373254          1.224590
 116         V                 0.385686          1.234174
 117         V                 0.387018          1.766751
 118         V                 0.403956          2.458686
 119         V                 0.419784          2.004230
 120         V                 0.441422          1.362130
 121         V                 0.449317          2.078081
 122         V                 0.483431          1.302923
 123         V                 0.487458          1.247398
 124         V                 0.500199          1.404608
 125         V                 0.503861          1.448983
 126         V                 0.516516          1.647804
 127         V                 0.530109          1.845959
 128         V                 0.538100          1.458413
 129         V                 0.544012          1.548978
 130         V                 0.544565          1.416763
 131         V                 0.558339          1.345923
 132         V                 0.567980          1.698251
 133         V                 0.579822          1.376314
 134         V                 0.585423          1.366591
 135         V                 0.590097          1.368366
 136         V                 0.595970          1.535457
 137         V                 0.610416          1.510081
 138         V                 0.621091          1.935357
 139         V                 0.631045          1.360978
 140         V                 0.645223          1.479270
 141         V                 0.696138          1.492846
 142         V                 0.712424          1.407744
 143         V                 0.713444          1.348219
 144         V                 0.716156          1.317288
 145         V                 0.718002          1.378462
 146         V                 0.740711          1.349221
 147         V                 0.740967          1.414450
 148         V                 0.743677          1.361746
 149         V                 0.745225          1.409153
 150         V                 0.751800          1.491189
 151         V                 0.764183          1.483557
 152         V                 0.766688          1.491751
 153         V                 0.766942          1.629082
 154         V                 0.773057          1.571105
 155         V                 0.777969          1.531383
 156         V                 0.780836          1.435395
 157         V                 0.784573          1.475639
 158         V                 0.786521          1.796482
 159         V                 0.794235          1.597409
 160         V                 0.816107          1.433696
 161         V                 0.821687          1.596459
 162         V                 0.825197          1.737947
 163         V                 0.829378          1.509564
 164         V                 0.831160          2.043703
 165         V                 0.848693          1.953370
 166         V                 0.849154          1.845416
 167         V                 0.856123          1.834409
 168         V                 0.859261          2.281672
 169         V                 0.883824          2.148590
 170         V                 0.895274          2.272617
 171         V                 0.897074          2.112891
 172         V                 0.900396          2.142773
 173         V                 0.901322          2.210323
 174         V                 0.908402          2.141498
 175         V                 0.910118          2.241922
 176         V                 0.915083          2.221197
 177         V                 0.915177          2.188405
 178         V                 0.917946          2.169759
 179         V                 0.928087          2.269555
 180         V                 0.931645          2.274924
 181         V                 0.936388          2.187158
 182         V                 0.939027          2.212069
 183         V                 0.943288          2.196907
 184         V                 0.945269          2.230467
 185         V                 0.952087          2.186463
 186         V                 0.960226          2.163871
 187         V                 0.960695          2.203298
 188         V                 0.965710          2.212681
 189         V                 0.985545          2.256091
 190         V                 0.998883          2.673643
 191         V                 1.009950          2.144260
 192         V                 1.033155          2.292349
 193         V                 1.054375          2.177297
 194         V                 1.072272          2.899500
 195         V                 1.076667          2.846916
 196         V                 1.086441          2.569737
 197         V                 1.106737          2.688235
 198         V                 1.117002          2.679574
 199         V                 1.117987          2.658128
 200         V                 1.139297          2.649402
 201         V                 1.202656          3.197132
 202         V                 1.207369          3.146548
 203         V                 1.215736          3.114354
 204         V                 1.231524          3.433049
 205         V                 1.271062          2.042424
 206         V                 1.277600          2.042564
 207         V                 1.279895          2.086020
 208         V                 1.298747          2.056779
 209         V                 1.302939          2.060978
 210         V                 1.309845          2.111261
 211         V                 1.310330          2.196068
 212         V                 1.317759          2.416817
 213         V                 1.354225          2.420209
 214         V                 1.362744          2.323127
 215         V                 1.366756          2.157891
 216         V                 1.366910          2.281001
 217         V                 1.371463          2.133258
 218         V                 1.391553          2.196148
 219         V                 1.394785          2.277514
 220         V                 1.406299          1.996230
 221         V                 1.412984          2.130773
 222         V                 1.444163          2.225113
 223         V                 1.445677          2.273786
 224         V                 1.492939          2.130242
 225         V                 1.498663          2.177426
 226         V                 1.501290          3.145544
 227         V                 1.526957          2.168369
 228         V                 1.542065          2.402094
 229         V                 1.605200          2.909938
 230         V                 1.626096          3.368529
 231         V                 1.640495          3.502469
 232         V                 1.647384          3.525457
 233         V                 1.652012          3.387407
 234         V                 1.665346          3.290404
 235         V                 1.682149          2.569273
 236         V                 1.684812          2.381329
 237         V                 1.689256          2.044253
 238         V                 1.689813          2.080216
 239         V                 1.690849          2.051186
 240         V                 1.691205          2.054376
 241         V                 1.691831          2.129628
 242         V                 1.700960          2.459088
 243         V                 1.708493          2.905898
 244         V                 1.717892          3.045438
 245         V                 1.859995          2.661383
 246         V                 1.862129          2.676665
 247         V                 1.863181          2.669157
 248         V                 1.871074          2.904747
 249         V                 1.882070          2.629162
 250         V                 1.889786          2.437446
 251         V                 1.893381          2.536585
 252         V                 1.899154          2.691147
 253         V                 1.900929          2.587116
 254         V                 1.901839          2.413977
 255         V                 1.919175          2.573546
 256         V                 1.923208          2.640121
 257         V                 1.926403          2.532513
 258         V                 1.926492          2.532944
 259         V                 1.927021          2.671854
 260         V                 1.933070          2.558890
 261         V                 1.933829          2.619130
 262         V                 1.935643          2.541582
 263         V                 1.954072          2.613934
 264         V                 1.957397          2.617602
 265         V                 1.960885          2.549803
 266         V                 1.972704          2.855716
 267         V                 1.972864          2.662551
 268         V                 1.981935          2.681561
 269         V                 1.988478          2.958264
 270         V                 1.993224          2.723257
 271         V                 1.998420          2.876454
 272         V                 2.001189          3.061188
 273         V                 2.001675          3.020372
 274         V                 2.004603          2.759461
 275         V                 2.005393          2.668463
 276         V                 2.010778          2.850260
 277         V                 2.010842          2.784488
 278         V                 2.015459          2.856606
 279         V                 2.034162          2.759318
 280         V                 2.043692          2.848240
 281         V                 2.063353          2.767553
 282         V                 2.070261          2.698853
 283         V                 2.095906          2.947693
 284         V                 2.099844          3.376112
 285         V                 2.114459          2.833451
 286         V                 2.121734          2.974240
 287         V                 2.151834          3.945575
 288         V                 2.162670          3.168057
 289         V                 2.177669          3.085673
 290         V                 2.222507          3.032330
 291         V                 2.254707          2.783368
 292         V                 2.272720          3.236165
 293         V                 2.277824          2.791587
 294         V                 2.279332          2.793149
 295         V                 2.280544          2.809243
 296         V                 2.309757          3.131143
 297         V                 2.342203          4.018864
 298         V                 2.345792          3.539438
 299         V                 2.351147          4.043894
 300         V                 2.362557          4.085937
 301         V                 2.403171          2.909738
 302         V                 2.412910          2.902973
 303         V                 2.424154          2.970698
 304         V                 2.426063          3.096648
 305         V                 2.441335          2.993716
 306         V                 2.446080          2.886632
 307         V                 2.450802          2.887957
 308         V                 2.452921          2.922420
 309         V                 2.466455          2.997862
 310         V                 2.467187          2.925477
 311         V                 2.474696          2.988123
 312         V                 2.477186          2.965818
 313         V                 2.485101          3.059110
 314         V                 2.485432          2.961454
 315         V                 2.488473          2.985252
 316         V                 2.494203          3.093510
 317         V                 2.751743          4.159472
 318         V                 2.755184          4.177264
 319         V                 2.765166          4.167172
 320         V                 2.769235          4.172982
 321         V                 2.770984          4.218416
 322         V                 2.773851          4.152439
 323         V                 2.777778          4.167421
 324         V                 2.778428          4.337045
 325         V                 2.787424          4.274460
 326         V                 2.791476          4.260841
 327         V                 2.799776          4.409165
 328         V                 2.803243          4.396036
 329         V                 2.806312          4.415966
 330         V                 2.809435          4.407030
 331         V                 2.821331          4.415506
 332         V                 2.824239          4.429514
 333         V                 2.826216          4.422832
 334         V                 2.832753          4.422655
 335         V                 2.833361          4.428391
 336         V                 2.835458          4.404082
 337         V                 2.836297          4.418612
 338         V                 2.846311          4.443642
 339         V                 2.858927          4.467911
 340         V                 2.869016          4.485674
 341         V                 2.951212          4.203619
 342         V                 2.963577          4.193366
 343         V                 2.979620          4.237614
 344         V                 2.993433          4.280747
 345         V                 3.004422          4.227613
 346         V                 3.012034          4.261684
 347         V                 3.078434          4.309488
 348         V                 3.100659          4.387460
 349         V                 3.128792          4.375195
 350         V                 3.173667          4.532602
 351         V                 3.232556          4.533034
 352         V                 3.259997          4.564534
 353         V                 3.312658          4.804354
 354         V                 3.353271          4.892214
 355         V                 3.378235          4.940603
 356         V                 3.388734          4.881929
 357         V                 3.495040          5.277002
 358         V                 3.536438          5.336436
 359         V                 3.545497          5.326274
 360         V                 3.601848          5.412177
 Total kinetic energy from orbitals= 1.771934591006D+03
 1\1\GINC-SHAS0859\SP\RCCSD-FC\CC-pVDZ\C8H24O4Si4\MIAL5369\15-Jun-2021\
 0\\# ccsd/cc-pvdz pop=full geom=connectivity\\D4\\0,1\O,0,-1.344525,1.
 290774,-0.295546\O,0,1.339123,1.296676,-0.297878\O,0,1.343691,-1.32359
 4,0.298657\O,0,-1.340001,-1.331377,0.293302\Si,0,-2.281871,-0.008942,0
 .056938\Si,0,2.281211,0.001081,0.057296\Si,0,-0.004638,2.223589,-0.135
 43\Si,0,0.004977,-2.230877,0.021156\C,0,-3.230051,0.306543,1.635679\H,
 0,-3.873102,1.188839,1.542392\H,0,-2.547045,0.473325,2.475836\C,0,-3.4
 19723,-0.302058,-1.395347\H,0,-4.064178,-1.17146,-1.223617\H,0,-4.0638
 23,0.567211,-1.569382\H,0,-2.846044,-0.482239,-2.31107\C,0,0.009885,-2
 .828402,-1.752334\H,0,0.898118,-3.435559,-1.960457\H,0,-0.873652,-3.44
 1433,-1.963211\H,0,0.008122,-1.986182,-2.453561\C,0,0.006793,-3.642455
 ,1.240769\H,0,-0.878022,-4.275947,1.113515\H,0,0.895445,-4.271143,1.11
 6446\H,0,0.004069,-3.261166,2.267707\C,0,3.418505,-0.292059,-1.39544\H
 ,0,4.05942,0.578961,-1.572452\H,0,4.066148,-1.158763,-1.22207\H,0,2.84
 453,-0.476636,-2.310099\C,0,3.229967,0.323773,1.634212\H,0,3.868714,-0
 .530066,1.886721\H,0,3.869969,1.207965,1.538016\H,0,2.547259,0.490396,
 2.474635\C,0,-0.008412,3.476797,-1.517474\H,0,-0.008053,2.97427,-2.490
 859\H,0,-0.896473,4.116606,-1.468312\H,0,0.876954,4.120433,-1.469648\C
 ,0,-0.005103,3.034279,1.551071\H,0,0.879675,3.667266,1.68298\H,0,-0.89
 2247,3.663692,1.684187\H,0,-0.003068,2.285456,2.351089\H,0,-3.865693,-
 0.550063,1.886669\\Version=ES64L-G16RevA.03\State=1-A\HF=-1772.6308229
 \MP2=-1774.8778644\MP3=-1775.009427\MP4D=-1775.0608842\MP4DQ=-1775.024
 1759\MP4SDQ=-1775.0419044\CCSD=-1775.0409011\RMSD=2.453e-09\PG=C01 [X(
 C8H24O4Si4)]\\@


 ACTORS ARE SO FORTUNATE.  THEY CAN CHOOSE WHETHER
 THEY WILL APPEAR IN A TRAGEDY OR IN COMEDY,
 WHETHER THEY WILL SUFFER OF MAKE MERRY,
 LAUGH OR SHED TEARS.  BUT IN REAL LIFE IT IS DIFFERENT.
 MOST MEN AND WOMEN ARE FORCED TO PERFORM
 PARTS FOR WHICH THEY HAVE NO QUALIFICATIONS.
 THE WORLD IS A STAGE, BUT THE PLAY IS BADLY CAST.

                                   -- OSCAR WILDE
 Job cpu time:       1 days  0 hours  4 minutes 30.6 seconds.
 Elapsed time:       0 days  2 hours  3 minutes 36.1 seconds.
 File lengths (MBytes):  RWF=  72000 Int=      0 D2E=      0 Chk=     24 Scr=     16
 Normal termination of Gaussian 16 at Tue Jun 15 18:21:41 2021.
