 Entering Gaussian System, Link 0=g16
 Input=D4.gjf
 Output=D4.log
 Initial command:
 /curc/sw/gaussian/16/g16/l1.exe "/scratch/summit/mial5369/7475239/Gau-22920.inp" -scrdir="/scratch/summit/mial5369/7475239/"
 Default is to use a total of  12 processors:
                               12 via shared-memory
                                1 via Linda
 Entering Link 1 = /curc/sw/gaussian/16/g16/l1.exe PID=     22921.
  
 Copyright (c) 1988,1990,1992,1993,1995,1998,2003,2009,2016,
            Gaussian, Inc.  All Rights Reserved.
  
 This is part of the Gaussian(R) 16 program.  It is based on
 the Gaussian(R) 09 system (copyright 2009, Gaussian, Inc.),
 the Gaussian(R) 03 system (copyright 2003, Gaussian, Inc.),
 the Gaussian(R) 98 system (copyright 1998, Gaussian, Inc.),
 the Gaussian(R) 94 system (copyright 1995, Gaussian, Inc.),
 the Gaussian 92(TM) system (copyright 1992, Gaussian, Inc.),
 the Gaussian 90(TM) system (copyright 1990, Gaussian, Inc.),
 the Gaussian 88(TM) system (copyright 1988, Gaussian, Inc.),
 the Gaussian 86(TM) system (copyright 1986, Carnegie Mellon
 University), and the Gaussian 82(TM) system (copyright 1983,
 Carnegie Mellon University). Gaussian is a federally registered
 trademark of Gaussian, Inc.
  
 This software contains proprietary and confidential information,
 including trade secrets, belonging to Gaussian, Inc.
  
 This software is provided under written license and may be
 used, copied, transmitted, or stored only in accord with that
 written license.
  
 The following legend is applicable only to US Government
 contracts under FAR:
  
                    RESTRICTED RIGHTS LEGEND
  
 Use, reproduction and disclosure by the US Government is
 subject to restrictions as set forth in subparagraphs (a)
 and (c) of the Commercial Computer Software - Restricted
 Rights clause in FAR 52.227-19.
  
 Gaussian, Inc.
 340 Quinnipiac St., Bldg. 40, Wallingford CT 06492
  
  
 ---------------------------------------------------------------
 Warning -- This program may not be used in any manner that
 competes with the business of Gaussian, Inc. or will provide
 assistance to any competitor of Gaussian, Inc.  The licensee
 of this program is prohibited from giving any competitor of
 Gaussian, Inc. access to this program.  By using this program,
 the user acknowledges that Gaussian, Inc. is engaged in the
 business of creating and licensing software in the field of
 computational chemistry and represents and warrants to the
 licensee that it is not a competitor of Gaussian, Inc. and that
 it will not use this program in any manner prohibited above.
 ---------------------------------------------------------------
  

 Cite this work as:
 Gaussian 16, Revision A.03,
 M. J. Frisch, G. W. Trucks, H. B. Schlegel, G. E. Scuseria, 
 M. A. Robb, J. R. Cheeseman, G. Scalmani, V. Barone, 
 G. A. Petersson, H. Nakatsuji, X. Li, M. Caricato, A. V. Marenich, 
 J. Bloino, B. G. Janesko, R. Gomperts, B. Mennucci, H. P. Hratchian, 
 J. V. Ortiz, A. F. Izmaylov, J. L. Sonnenberg, D. Williams-Young, 
 F. Ding, F. Lipparini, F. Egidi, J. Goings, B. Peng, A. Petrone, 
 T. Henderson, D. Ranasinghe, V. G. Zakrzewski, J. Gao, N. Rega, 
 G. Zheng, W. Liang, M. Hada, M. Ehara, K. Toyota, R. Fukuda, 
 J. Hasegawa, M. Ishida, T. Nakajima, Y. Honda, O. Kitao, H. Nakai, 
 T. Vreven, K. Throssell, J. A. Montgomery, Jr., J. E. Peralta, 
 F. Ogliaro, M. J. Bearpark, J. J. Heyd, E. N. Brothers, K. N. Kudin, 
 V. N. Staroverov, T. A. Keith, R. Kobayashi, J. Normand, 
 K. Raghavachari, A. P. Rendell, J. C. Burant, S. S. Iyengar, 
 J. Tomasi, M. Cossi, J. M. Millam, M. Klene, C. Adamo, R. Cammi, 
 J. W. Ochterski, R. L. Martin, K. Morokuma, O. Farkas, 
 J. B. Foresman, and D. J. Fox, Gaussian, Inc., Wallingford CT, 2016.
 
 ******************************************
 Gaussian 16:  ES64L-G16RevA.03 25-Dec-2016
                30-May-2021 
 ******************************************
 %nprocshared=12
 Will use up to   12 processors via shared memory.
 %mem=50GB
 ----------------------------------------------------------------------
 # opt=(calcfc,noeigentest,maxcycles=200) freq b3lyp/6-31+g(2df,p) geom
 =connectivity
 ----------------------------------------------------------------------
 1/6=200,10=4,11=1,18=20,19=15,26=3,38=1,57=2/1,3;
 2/9=110,12=2,17=6,18=5,40=1/2;
 3/5=1,6=6,7=114,11=2,25=1,30=1,71=2,74=-5,140=1/1,2,3;
 4//1;
 5/5=2,38=5/2;
 8/6=4,10=90,11=11/1;
 11/6=1,8=1,9=11,15=111,16=1/1,2,10;
 10/6=1,13=1/2;
 6/7=2,8=2,9=2,10=2,28=1/1;
 7/10=1,18=20,25=1/1,2,3,16;
 1/6=200,10=4,11=1,18=20,19=15,26=3/3(2);
 2/9=110/2;
 99//99;
 2/9=110/2;
 3/5=1,6=6,7=114,11=2,25=1,30=1,71=1,74=-5/1,2,3;
 4/5=5,16=3,69=1/1;
 5/5=2,38=5/2;
 7//1,2,3,16;
 1/6=200,11=1,18=20,19=15,26=3/3(-5);
 2/9=110/2;
 6/7=2,8=2,9=2,10=2,19=2,28=1/1;
 99/9=1/99;
 --
 D4
 --
 Symbolic Z-matrix:
 Charge =  0 Multiplicity = 1
 O                     0.60532   1.63277   0.75312 
 O                    -1.93055   0.79643   0.41123 
 O                    -1.06397  -1.55876  -0.56831 
 O                     1.48112  -0.72336  -0.24234 
 Si                    1.94817   0.74715   0.38507 
 Si                   -2.41161  -0.66187  -0.20917 
 Si                   -0.86408   2.01866   0.08712 
 Si                    0.39405  -1.93087   0.1145 
 C                     2.95423   1.52098  -0.97911 
 H                     3.50335   2.35261  -0.58957 
 H                     2.30114   1.85765  -1.75694 
 C                     2.9392    0.50703   1.93668 
 H                     3.80709  -0.12892   1.73613 
 H                     3.29796   1.46752   2.31872 
 H                     2.3345    0.03844   2.71879 
 C                     0.20334  -2.05425   1.96877 
 H                    -0.50931  -2.84128   2.23635 
 H                     1.15913  -2.2874    2.4489 
 H                    -0.16488  -1.10814   2.38367 
 C                     1.03044  -3.48294  -0.68328 
 H                     2.01125  -3.75894  -0.28377 
 H                     0.34527  -4.3194   -0.5176 
 H                     1.12838  -3.33803  -1.76373 
 C                    -3.41954  -1.51232   1.10559 
 H                    -4.35547  -0.97438   1.28482 
 H                    -3.66529  -2.53762   0.81281 
 H                    -2.86722  -1.54583   2.04986 
 C                    -3.34753  -0.41693  -1.80025 
 H                    -3.74088  -1.36982  -2.16755 
 H                    -4.18853   0.26928  -1.66127 
 H                    -2.69094  -0.00619  -2.57333 
 C                    -1.4761    3.55882   0.92326 
 H                    -1.58017   3.38457   1.99821 
 H                    -0.77579   4.3867    0.77877 
 H                    -2.45214   3.85909   0.53102 
 C                    -0.66802   2.19233  -1.76382 
 H                    -1.62787   2.41387  -2.2416 
 H                     0.02657   3.00124  -2.01272 
 H                    -0.27963   1.26378  -2.19985 
 H                     3.63592   0.79703  -1.37419 
 

 GradGradGradGradGradGradGradGradGradGradGradGradGradGradGradGradGradGrad
 Berny optimization.
 Initialization pass.
                           ----------------------------
                           !    Initial Parameters    !
                           ! (Angstroms and Degrees)  !
 --------------------------                            --------------------------
 ! Name  Definition              Value          Derivative Info.                !
 --------------------------------------------------------------------------------
 ! R1    R(1,5)                  1.6502         calculate D2E/DX2 analytically  !
 ! R2    R(1,7)                  1.6588         calculate D2E/DX2 analytically  !
 ! R3    R(2,6)                  1.6562         calculate D2E/DX2 analytically  !
 ! R4    R(2,7)                  1.6542         calculate D2E/DX2 analytically  !
 ! R5    R(3,6)                  1.6582         calculate D2E/DX2 analytically  !
 ! R6    R(3,8)                  1.6524         calculate D2E/DX2 analytically  !
 ! R7    R(4,5)                  1.6656         calculate D2E/DX2 analytically  !
 ! R8    R(4,8)                  1.6635         calculate D2E/DX2 analytically  !
 ! R9    R(5,9)                  1.8633         calculate D2E/DX2 analytically  !
 ! R10   R(5,12)                 1.8567         calculate D2E/DX2 analytically  !
 ! R11   R(6,24)                 1.8622         calculate D2E/DX2 analytically  !
 ! R12   R(6,28)                 1.8621         calculate D2E/DX2 analytically  !
 ! R13   R(7,32)                 1.8563         calculate D2E/DX2 analytically  !
 ! R14   R(7,36)                 1.8694         calculate D2E/DX2 analytically  !
 ! R15   R(8,16)                 1.8681         calculate D2E/DX2 analytically  !
 ! R16   R(8,20)                 1.8575         calculate D2E/DX2 analytically  !
 ! R17   R(9,10)                 1.07           calculate D2E/DX2 analytically  !
 ! R18   R(9,11)                 1.07           calculate D2E/DX2 analytically  !
 ! R19   R(9,40)                 1.07           calculate D2E/DX2 analytically  !
 ! R20   R(12,13)                1.0945         calculate D2E/DX2 analytically  !
 ! R21   R(12,14)                1.0942         calculate D2E/DX2 analytically  !
 ! R22   R(12,15)                1.094          calculate D2E/DX2 analytically  !
 ! R23   R(16,17)                1.0949         calculate D2E/DX2 analytically  !
 ! R24   R(16,18)                1.0947         calculate D2E/DX2 analytically  !
 ! R25   R(16,19)                1.0967         calculate D2E/DX2 analytically  !
 ! R26   R(20,21)                1.0944         calculate D2E/DX2 analytically  !
 ! R27   R(20,22)                1.0939         calculate D2E/DX2 analytically  !
 ! R28   R(20,23)                1.0945         calculate D2E/DX2 analytically  !
 ! R29   R(24,25)                1.0943         calculate D2E/DX2 analytically  !
 ! R30   R(24,26)                1.0942         calculate D2E/DX2 analytically  !
 ! R31   R(24,27)                1.0945         calculate D2E/DX2 analytically  !
 ! R32   R(28,29)                1.0944         calculate D2E/DX2 analytically  !
 ! R33   R(28,30)                1.0943         calculate D2E/DX2 analytically  !
 ! R34   R(28,31)                1.0943         calculate D2E/DX2 analytically  !
 ! R35   R(32,33)                1.0939         calculate D2E/DX2 analytically  !
 ! R36   R(32,34)                1.0939         calculate D2E/DX2 analytically  !
 ! R37   R(32,35)                1.0939         calculate D2E/DX2 analytically  !
 ! R38   R(36,37)                1.0948         calculate D2E/DX2 analytically  !
 ! R39   R(36,38)                1.0949         calculate D2E/DX2 analytically  !
 ! R40   R(36,39)                1.0969         calculate D2E/DX2 analytically  !
 ! A1    A(5,1,7)              139.1266         calculate D2E/DX2 analytically  !
 ! A2    A(6,2,7)              139.8595         calculate D2E/DX2 analytically  !
 ! A3    A(6,3,8)              138.5398         calculate D2E/DX2 analytically  !
 ! A4    A(5,4,8)              138.015          calculate D2E/DX2 analytically  !
 ! A5    A(1,5,4)              109.2478         calculate D2E/DX2 analytically  !
 ! A6    A(1,5,9)              112.3208         calculate D2E/DX2 analytically  !
 ! A7    A(1,5,12)             108.5044         calculate D2E/DX2 analytically  !
 ! A8    A(4,5,9)              104.0206         calculate D2E/DX2 analytically  !
 ! A9    A(4,5,12)             110.5047         calculate D2E/DX2 analytically  !
 ! A10   A(9,5,12)             112.1692         calculate D2E/DX2 analytically  !
 ! A11   A(2,6,3)              108.7434         calculate D2E/DX2 analytically  !
 ! A12   A(2,6,24)             107.1495         calculate D2E/DX2 analytically  !
 ! A13   A(2,6,28)             110.5019         calculate D2E/DX2 analytically  !
 ! A14   A(3,6,24)             110.2301         calculate D2E/DX2 analytically  !
 ! A15   A(3,6,28)             107.1318         calculate D2E/DX2 analytically  !
 ! A16   A(24,6,28)            113.0349         calculate D2E/DX2 analytically  !
 ! A17   A(1,7,2)              108.696          calculate D2E/DX2 analytically  !
 ! A18   A(1,7,32)             107.7114         calculate D2E/DX2 analytically  !
 ! A19   A(1,7,36)             109.0411         calculate D2E/DX2 analytically  !
 ! A20   A(2,7,32)             108.1935         calculate D2E/DX2 analytically  !
 ! A21   A(2,7,36)             109.2849         calculate D2E/DX2 analytically  !
 ! A22   A(32,7,36)            113.7969         calculate D2E/DX2 analytically  !
 ! A23   A(3,8,4)              108.9357         calculate D2E/DX2 analytically  !
 ! A24   A(3,8,16)             109.5694         calculate D2E/DX2 analytically  !
 ! A25   A(3,8,20)             108.2393         calculate D2E/DX2 analytically  !
 ! A26   A(4,8,16)             109.1218         calculate D2E/DX2 analytically  !
 ! A27   A(4,8,20)             106.8884         calculate D2E/DX2 analytically  !
 ! A28   A(16,8,20)            113.9595         calculate D2E/DX2 analytically  !
 ! A29   A(5,9,10)             109.4712         calculate D2E/DX2 analytically  !
 ! A30   A(5,9,11)             109.4712         calculate D2E/DX2 analytically  !
 ! A31   A(5,9,40)             109.4712         calculate D2E/DX2 analytically  !
 ! A32   A(10,9,11)            109.4712         calculate D2E/DX2 analytically  !
 ! A33   A(10,9,40)            109.4712         calculate D2E/DX2 analytically  !
 ! A34   A(11,9,40)            109.4712         calculate D2E/DX2 analytically  !
 ! A35   A(5,12,13)            110.1982         calculate D2E/DX2 analytically  !
 ! A36   A(5,12,14)            110.6874         calculate D2E/DX2 analytically  !
 ! A37   A(5,12,15)            110.9646         calculate D2E/DX2 analytically  !
 ! A38   A(13,12,14)           108.303          calculate D2E/DX2 analytically  !
 ! A39   A(13,12,15)           108.688          calculate D2E/DX2 analytically  !
 ! A40   A(14,12,15)           107.9149         calculate D2E/DX2 analytically  !
 ! A41   A(8,16,17)            110.8845         calculate D2E/DX2 analytically  !
 ! A42   A(8,16,18)            111.1163         calculate D2E/DX2 analytically  !
 ! A43   A(8,16,19)            110.6586         calculate D2E/DX2 analytically  !
 ! A44   A(17,16,18)           107.9382         calculate D2E/DX2 analytically  !
 ! A45   A(17,16,19)           108.0049         calculate D2E/DX2 analytically  !
 ! A46   A(18,16,19)           108.1155         calculate D2E/DX2 analytically  !
 ! A47   A(8,20,21)            111.1601         calculate D2E/DX2 analytically  !
 ! A48   A(8,20,22)            111.0562         calculate D2E/DX2 analytically  !
 ! A49   A(8,20,23)            110.1208         calculate D2E/DX2 analytically  !
 ! A50   A(21,20,22)           108.2529         calculate D2E/DX2 analytically  !
 ! A51   A(21,20,23)           108.2728         calculate D2E/DX2 analytically  !
 ! A52   A(22,20,23)           107.8668         calculate D2E/DX2 analytically  !
 ! A53   A(6,24,25)            110.736          calculate D2E/DX2 analytically  !
 ! A54   A(6,24,26)            111.1352         calculate D2E/DX2 analytically  !
 ! A55   A(6,24,27)            110.486          calculate D2E/DX2 analytically  !
 ! A56   A(25,24,26)           108.2013         calculate D2E/DX2 analytically  !
 ! A57   A(25,24,27)           107.7801         calculate D2E/DX2 analytically  !
 ! A58   A(26,24,27)           108.391          calculate D2E/DX2 analytically  !
 ! A59   A(6,28,29)            110.6647         calculate D2E/DX2 analytically  !
 ! A60   A(6,28,30)            111.1149         calculate D2E/DX2 analytically  !
 ! A61   A(6,28,31)            110.5753         calculate D2E/DX2 analytically  !
 ! A62   A(29,28,30)           108.2043         calculate D2E/DX2 analytically  !
 ! A63   A(29,28,31)           107.781          calculate D2E/DX2 analytically  !
 ! A64   A(30,28,31)           108.3898         calculate D2E/DX2 analytically  !
 ! A65   A(7,32,33)            109.9881         calculate D2E/DX2 analytically  !
 ! A66   A(7,32,34)            110.9372         calculate D2E/DX2 analytically  !
 ! A67   A(7,32,35)            111.1249         calculate D2E/DX2 analytically  !
 ! A68   A(33,32,34)           108.1339         calculate D2E/DX2 analytically  !
 ! A69   A(33,32,35)           108.1305         calculate D2E/DX2 analytically  !
 ! A70   A(34,32,35)           108.4271         calculate D2E/DX2 analytically  !
 ! A71   A(7,36,37)            111.035          calculate D2E/DX2 analytically  !
 ! A72   A(7,36,38)            111.1163         calculate D2E/DX2 analytically  !
 ! A73   A(7,36,39)            110.6152         calculate D2E/DX2 analytically  !
 ! A74   A(37,36,38)           107.9073         calculate D2E/DX2 analytically  !
 ! A75   A(37,36,39)           107.9538         calculate D2E/DX2 analytically  !
 ! A76   A(38,36,39)           108.085          calculate D2E/DX2 analytically  !
 ! D1    D(7,1,5,4)            -44.1201         calculate D2E/DX2 analytically  !
 ! D2    D(7,1,5,9)             70.762          calculate D2E/DX2 analytically  !
 ! D3    D(7,1,5,12)          -164.6584         calculate D2E/DX2 analytically  !
 ! D4    D(5,1,7,2)             83.4625         calculate D2E/DX2 analytically  !
 ! D5    D(5,1,7,32)          -159.5309         calculate D2E/DX2 analytically  !
 ! D6    D(5,1,7,36)           -35.5918         calculate D2E/DX2 analytically  !
 ! D7    D(7,2,6,3)             47.5026         calculate D2E/DX2 analytically  !
 ! D8    D(7,2,6,24)           166.637          calculate D2E/DX2 analytically  !
 ! D9    D(7,2,6,28)           -69.819          calculate D2E/DX2 analytically  !
 ! D10   D(6,2,7,1)            -86.0384         calculate D2E/DX2 analytically  !
 ! D11   D(6,2,7,32)           157.2636         calculate D2E/DX2 analytically  !
 ! D12   D(6,2,7,36)            32.863          calculate D2E/DX2 analytically  !
 ! D13   D(8,3,6,2)             43.6585         calculate D2E/DX2 analytically  !
 ! D14   D(8,3,6,24)           -73.5288         calculate D2E/DX2 analytically  !
 ! D15   D(8,3,6,28)           163.1058         calculate D2E/DX2 analytically  !
 ! D16   D(6,3,8,4)            -84.6636         calculate D2E/DX2 analytically  !
 ! D17   D(6,3,8,16)            34.6446         calculate D2E/DX2 analytically  !
 ! D18   D(6,3,8,20)           159.4599         calculate D2E/DX2 analytically  !
 ! D19   D(8,4,5,1)            -46.4527         calculate D2E/DX2 analytically  !
 ! D20   D(8,4,5,9)           -166.5734         calculate D2E/DX2 analytically  !
 ! D21   D(8,4,5,12)            72.8544         calculate D2E/DX2 analytically  !
 ! D22   D(5,4,8,3)             86.6519         calculate D2E/DX2 analytically  !
 ! D23   D(5,4,8,16)           -32.9347         calculate D2E/DX2 analytically  !
 ! D24   D(5,4,8,20)          -156.6067         calculate D2E/DX2 analytically  !
 ! D25   D(1,5,9,10)            76.2502         calculate D2E/DX2 analytically  !
 ! D26   D(1,5,9,11)           -43.7498         calculate D2E/DX2 analytically  !
 ! D27   D(1,5,9,40)          -163.7498         calculate D2E/DX2 analytically  !
 ! D28   D(4,5,9,10)          -165.7274         calculate D2E/DX2 analytically  !
 ! D29   D(4,5,9,11)            74.2726         calculate D2E/DX2 analytically  !
 ! D30   D(4,5,9,40)           -45.7274         calculate D2E/DX2 analytically  !
 ! D31   D(12,5,9,10)          -46.2809         calculate D2E/DX2 analytically  !
 ! D32   D(12,5,9,11)         -166.2809         calculate D2E/DX2 analytically  !
 ! D33   D(12,5,9,40)           73.7191         calculate D2E/DX2 analytically  !
 ! D34   D(1,5,12,13)          176.6119         calculate D2E/DX2 analytically  !
 ! D35   D(1,5,12,14)          -63.6124         calculate D2E/DX2 analytically  !
 ! D36   D(1,5,12,15)           56.1761         calculate D2E/DX2 analytically  !
 ! D37   D(4,5,12,13)           56.8561         calculate D2E/DX2 analytically  !
 ! D38   D(4,5,12,14)          176.6318         calculate D2E/DX2 analytically  !
 ! D39   D(4,5,12,15)          -63.5797         calculate D2E/DX2 analytically  !
 ! D40   D(9,5,12,13)          -58.7188         calculate D2E/DX2 analytically  !
 ! D41   D(9,5,12,14)           61.0569         calculate D2E/DX2 analytically  !
 ! D42   D(9,5,12,15)         -179.1546         calculate D2E/DX2 analytically  !
 ! D43   D(2,6,24,25)           66.93           calculate D2E/DX2 analytically  !
 ! D44   D(2,6,24,26)         -172.7764         calculate D2E/DX2 analytically  !
 ! D45   D(2,6,24,27)          -52.4107         calculate D2E/DX2 analytically  !
 ! D46   D(3,6,24,25)         -174.8985         calculate D2E/DX2 analytically  !
 ! D47   D(3,6,24,26)          -54.6048         calculate D2E/DX2 analytically  !
 ! D48   D(3,6,24,27)           65.7608         calculate D2E/DX2 analytically  !
 ! D49   D(28,6,24,25)         -55.0418         calculate D2E/DX2 analytically  !
 ! D50   D(28,6,24,26)          65.2518         calculate D2E/DX2 analytically  !
 ! D51   D(28,6,24,27)        -174.3826         calculate D2E/DX2 analytically  !
 ! D52   D(2,6,28,29)         -175.1164         calculate D2E/DX2 analytically  !
 ! D53   D(2,6,28,30)          -54.8801         calculate D2E/DX2 analytically  !
 ! D54   D(2,6,28,31)           65.5301         calculate D2E/DX2 analytically  !
 ! D55   D(3,6,28,29)           66.5731         calculate D2E/DX2 analytically  !
 ! D56   D(3,6,28,30)         -173.1906         calculate D2E/DX2 analytically  !
 ! D57   D(3,6,28,31)          -52.7804         calculate D2E/DX2 analytically  !
 ! D58   D(24,6,28,29)         -55.0455         calculate D2E/DX2 analytically  !
 ! D59   D(24,6,28,30)          65.1908         calculate D2E/DX2 analytically  !
 ! D60   D(24,6,28,31)        -174.399          calculate D2E/DX2 analytically  !
 ! D61   D(1,7,32,33)          -59.7266         calculate D2E/DX2 analytically  !
 ! D62   D(1,7,32,34)           59.8621         calculate D2E/DX2 analytically  !
 ! D63   D(1,7,32,35)         -179.4305         calculate D2E/DX2 analytically  !
 ! D64   D(2,7,32,33)           57.6065         calculate D2E/DX2 analytically  !
 ! D65   D(2,7,32,34)          177.1952         calculate D2E/DX2 analytically  !
 ! D66   D(2,7,32,35)          -62.0974         calculate D2E/DX2 analytically  !
 ! D67   D(36,7,32,33)         179.2669         calculate D2E/DX2 analytically  !
 ! D68   D(36,7,32,34)         -61.1445         calculate D2E/DX2 analytically  !
 ! D69   D(36,7,32,35)          59.5629         calculate D2E/DX2 analytically  !
 ! D70   D(1,7,36,37)          178.0644         calculate D2E/DX2 analytically  !
 ! D71   D(1,7,36,38)          -61.8256         calculate D2E/DX2 analytically  !
 ! D72   D(1,7,36,39)           58.2285         calculate D2E/DX2 analytically  !
 ! D73   D(2,7,36,37)           59.3777         calculate D2E/DX2 analytically  !
 ! D74   D(2,7,36,38)          179.4877         calculate D2E/DX2 analytically  !
 ! D75   D(2,7,36,39)          -60.4582         calculate D2E/DX2 analytically  !
 ! D76   D(32,7,36,37)         -61.6749         calculate D2E/DX2 analytically  !
 ! D77   D(32,7,36,38)          58.4351         calculate D2E/DX2 analytically  !
 ! D78   D(32,7,36,39)         178.4892         calculate D2E/DX2 analytically  !
 ! D79   D(3,8,16,17)           60.6984         calculate D2E/DX2 analytically  !
 ! D80   D(3,8,16,18)         -179.2531         calculate D2E/DX2 analytically  !
 ! D81   D(3,8,16,19)          -59.1318         calculate D2E/DX2 analytically  !
 ! D82   D(4,8,16,17)          179.8919         calculate D2E/DX2 analytically  !
 ! D83   D(4,8,16,18)          -60.0596         calculate D2E/DX2 analytically  !
 ! D84   D(4,8,16,19)           60.0618         calculate D2E/DX2 analytically  !
 ! D85   D(20,8,16,17)         -60.7322         calculate D2E/DX2 analytically  !
 ! D86   D(20,8,16,18)          59.3162         calculate D2E/DX2 analytically  !
 ! D87   D(20,8,16,19)         179.4376         calculate D2E/DX2 analytically  !
 ! D88   D(3,8,20,21)          178.456          calculate D2E/DX2 analytically  !
 ! D89   D(3,8,20,22)          -60.953          calculate D2E/DX2 analytically  !
 ! D90   D(3,8,20,23)           58.4645         calculate D2E/DX2 analytically  !
 ! D91   D(4,8,20,21)           61.2544         calculate D2E/DX2 analytically  !
 ! D92   D(4,8,20,22)         -178.1546         calculate D2E/DX2 analytically  !
 ! D93   D(4,8,20,23)          -58.7371         calculate D2E/DX2 analytically  !
 ! D94   D(16,8,20,21)         -59.3786         calculate D2E/DX2 analytically  !
 ! D95   D(16,8,20,22)          61.2124         calculate D2E/DX2 analytically  !
 ! D96   D(16,8,20,23)        -179.3701         calculate D2E/DX2 analytically  !
 --------------------------------------------------------------------------------
 Trust Radius=3.00D-01 FncErr=1.00D-07 GrdErr=1.00D-06 EigMax=2.50D+02 EigMin=1.00D-04
 Number of steps in this run=    200 maximum allowed number of steps=    240.
 GradGradGradGradGradGradGradGradGradGradGradGradGradGradGradGradGradGrad

                          Input orientation:                          
 ---------------------------------------------------------------------
 Center     Atomic      Atomic             Coordinates (Angstroms)
 Number     Number       Type             X           Y           Z
 ---------------------------------------------------------------------
      1          8           0        0.605318    1.632767    0.753122
      2          8           0       -1.930550    0.796432    0.411230
      3          8           0       -1.063970   -1.558760   -0.568310
      4          8           0        1.481121   -0.723360   -0.242340
      5         14           0        1.948169    0.747154    0.385071
      6         14           0       -2.411610   -0.661870   -0.209170
      7         14           0       -0.864080    2.018662    0.087115
      8         14           0        0.394046   -1.930870    0.114500
      9          6           0        2.954228    1.520976   -0.979110
     10          1           0        3.503350    2.352614   -0.589568
     11          1           0        2.301137    1.857651   -1.756942
     12          6           0        2.939199    0.507029    1.936683
     13          1           0        3.807085   -0.128920    1.736126
     14          1           0        3.297960    1.467519    2.318718
     15          1           0        2.334502    0.038440    2.718794
     16          6           0        0.203337   -2.054250    1.968769
     17          1           0       -0.509310   -2.841280    2.236353
     18          1           0        1.159133   -2.287400    2.448895
     19          1           0       -0.164880   -1.108140    2.383674
     20          6           0        1.030442   -3.482940   -0.683280
     21          1           0        2.011254   -3.758940   -0.283770
     22          1           0        0.345273   -4.319400   -0.517600
     23          1           0        1.128384   -3.338030   -1.763730
     24          6           0       -3.419540   -1.512320    1.105588
     25          1           0       -4.355470   -0.974380    1.284815
     26          1           0       -3.665290   -2.537620    0.812807
     27          1           0       -2.867220   -1.545830    2.049861
     28          6           0       -3.347530   -0.416930   -1.800250
     29          1           0       -3.740880   -1.369820   -2.167550
     30          1           0       -4.188530    0.269283   -1.661270
     31          1           0       -2.690940   -0.006190   -2.573330
     32          6           0       -1.476100    3.558824    0.923259
     33          1           0       -1.580170    3.384574    1.998213
     34          1           0       -0.775790    4.386700    0.778766
     35          1           0       -2.452140    3.859093    0.531015
     36          6           0       -0.668020    2.192326   -1.763820
     37          1           0       -1.627870    2.413868   -2.241600
     38          1           0        0.026570    3.001236   -2.012720
     39          1           0       -0.279630    1.263783   -2.199850
     40          1           0        3.635921    0.797027   -1.374195
 ---------------------------------------------------------------------
                    Distance matrix (angstroms):
                    1          2          3          4          5
     1  O    0.000000
     2  O    2.692020   0.000000
     3  O    3.836476   2.693954   0.000000
     4  O    2.703574   3.791625   2.698451   0.000000
     5  Si   1.650158   3.879120   3.911414   1.665590   0.000000
     6  Si   3.910655   1.656188   1.658170   3.893358   4.620189
     7  Si   1.658798   1.654163   3.642456   3.623147   3.100686
     8  Si   3.626566   3.595827   1.652424   1.663474   3.108105
     9  C    2.920703   5.130211   5.079315   2.783868   1.863316
    10  H    3.274078   5.740259   6.013295   3.697512   2.438444
    11  H    3.037564   4.871790   4.940512   3.102912   2.438444
    12  C    2.848702   5.111283   5.154400   2.896203   1.856691
    13  H    3.784330   5.960879   5.575127   3.110915   2.459354
    14  H    3.119089   5.605906   6.043156   3.828821   2.465736
    15  H    3.065261   4.908164   4.990562   3.174415   2.469371
    16  C    3.903009   3.886617   2.878949   2.879757   3.660656
    17  H    4.843497   4.310910   3.133471   3.819859   4.726871
    18  H    4.306979   4.817493   3.817935   3.129320   3.753727
    19  H    3.280926   3.261215   3.118594   3.123031   3.449856
    20  C    5.330520   5.317749   2.846445   2.830693   4.458396
    21  H    5.667654   6.064013   3.791933   3.081802   4.555898
    22  H    6.091851   5.675723   3.099947   3.781193   5.390182
    23  H    5.596156   5.584022   3.066145   3.045579   4.688083
    24  C    5.120087   2.833648   2.890121   5.143525   5.868276
    25  H    5.629328   3.127165   3.822243   6.038295   6.596142
    26  H    5.969404   3.779747   3.103630   5.557915   6.517946
    27  H    4.882984   3.008098   3.179103   4.983845   5.587242
    28  C    5.132833   2.893220   2.834801   5.082996   5.845951
    29  H    6.036165   3.823617   3.123958   5.603003   6.585038
    30  H    5.537992   3.109922   3.781425   5.928208   6.486520
    31  H    4.961530   3.182765   3.012907   4.832591   5.553467
    32  C    2.840941   2.845963   5.346428   5.332999   4.463267
    33  H    3.065198   3.056102   5.593751   5.591664   4.691203
    34  H    3.080952   3.789271   6.102963   5.678822   4.563030
    35  H    3.788655   3.109067   5.699883   6.088308   5.391492
    36  C    2.875673   2.876342   3.956851   3.928732   3.681127
    37  H    3.816491   3.121734   4.347373   4.848202   4.739767
    38  H    3.139672   3.816676   4.906033   4.372937   3.810883
    39  H    3.104726   3.124371   3.353187   3.298610   3.451349
    40  H    3.795852   5.845797   5.318661   2.869814   2.438444
                    6          7          8          9         10
     6  Si   0.000000
     7  Si   3.109322   0.000000
     8  Si   3.096260   4.145170   0.000000
     9  C    5.843787   3.995498   4.434609   0.000000
    10  H    6.649705   4.432141   5.339636   1.070000   0.000000
    11  H    5.563594   3.666752   4.635967   1.070000   1.747303
    12  C    5.882361   4.491199   3.967557   3.087096   3.179055
    13  H    6.537613   5.399178   4.186350   3.289685   3.414545
    14  H    6.597250   4.754617   4.984009   3.316124   3.046917
    15  H    5.620408   4.591072   3.798144   4.031931   4.203197
    16  C    3.676967   4.611791   1.868129   5.388843   6.070883
    17  H    3.788028   5.325798   2.479346   6.431530   7.145894
    18  H    4.738973   5.311644   2.482312   5.429301   6.021407
    19  H    3.459739   3.942075   2.477586   5.286719   5.854306
    20  C    4.475594   5.869442   1.857518   5.369138   6.338592
    21  H    5.399920   6.464193   2.473019   5.408346   6.298488
    22  H    4.590540   6.480682   2.471235   6.413239   7.382032
    23  H    4.702132   6.007469   2.459085   5.249693   6.277145
    24  C    1.862197   4.476103   3.962433   7.360147   8.107877
    25  H    2.471486   4.752114   4.984216   8.048841   8.737463
    26  H    2.476810   5.397510   4.163410   7.968763   8.790361
    27  H    2.468236   4.535476   3.811789   7.243564   7.921402
    28  C    1.862116   3.957497   4.467401   6.643937   7.488036
    29  H    2.470507   4.984105   4.756064   7.388746   8.296108
    30  H    2.476507   4.143567   5.384611   7.283617   8.040761
    31  H    2.469250   3.809910   4.521721   6.061493   6.918707
    32  C    4.468986   1.856288   5.855619   5.234466   5.342145
    33  H    4.683753   2.455768   5.974935   5.735697   5.796872
    34  H    5.398146   2.468558   6.459215   5.021507   4.931621
    35  H    4.581334   2.471066   6.465132   6.080796   6.244442
    36  C    3.688289   1.869374   4.653688   3.766585   4.336461
    37  H    3.768977   2.482434   5.340047   4.835986   5.390954
    38  H    4.755614   2.483549   5.383844   3.439579   3.812358
    39  H    3.495180   2.478232   4.001982   3.466149   4.253176
    40  H    6.329162   4.886494   4.490811   1.070000   1.747303
                   11         12         13         14         15
    11  H    0.000000
    12  C    3.984240   0.000000
    13  H    4.291371   1.094477   0.000000
    14  H    4.213889   1.094167   1.774046   0.000000
    15  H    4.831444   1.094044   1.778243   1.769344   0.000000
    16  C    5.795227   3.747815   4.092434   4.701278   3.079570
    17  H    6.776797   4.815931   5.122342   5.750464   4.075881
    18  H    6.014540   3.352585   3.489803   4.323302   2.619899
    19  H    5.658786   3.527588   4.141823   4.316190   2.770174
    20  C    5.593687   5.140760   4.981237   6.217771   5.067030
    21  H    5.813808   4.897957   4.525708   5.978665   4.851801
    22  H    6.596767   6.003863   5.884178   7.088829   5.781180
    23  H    5.326397   5.635298   5.451864   6.668339   5.740060
    24  C    7.230279   6.723247   7.384814   7.448217   6.173839
    25  H    7.847491   7.472061   8.218624   8.099804   6.916489
    26  H    7.843486   7.358822   7.905109   8.172867   6.801939
    27  H    7.265490   6.159671   6.830257   6.867460   5.478622
    28  C    6.089584   7.371657   7.986077   8.042362   7.274243
    29  H    6.862299   8.061684   8.587799   8.816029   7.922741
    30  H    6.681905   7.987885   8.696593   8.562920   7.860547
    31  H    5.390847   7.232017   7.798128   7.872158   7.298194
    32  C    4.934064   5.462174   6.494017   5.395601   5.489785
    33  H    5.612239   5.358054   6.437068   5.251093   5.200049
    34  H    4.721587   5.494885   6.504622   5.242948   5.687266
    35  H    5.642177   6.502213   7.518939   6.479133   6.503515
    36  C    2.987968   5.435621   6.137130   5.737722   5.809319
    37  H    3.997671   6.477052   7.199084   6.779076   6.778537
    38  H    2.558684   5.504749   6.176084   5.640535   6.040855
    39  H    2.684997   5.295700   5.842326   5.766985   5.703351
    40  H    1.747303   3.395796   3.249734   3.768472   4.361388
                   16         17         18         19         20
    16  C    0.000000
    17  H    1.094935   0.000000
    18  H    1.094726   1.770779   0.000000
    19  H    1.096747   1.773164   1.774237   0.000000
    20  C    3.123879   3.362562   3.355056   4.058901   0.000000
    21  H    3.353873   3.680538   3.218540   4.344831   1.094430
    22  H    3.366464   3.240279   3.686663   4.357733   1.093879
    23  H    4.054054   4.350801   4.341771   4.883227   1.094515
    24  C    3.763510   3.393258   4.834198   3.519897   5.185145
    25  H    4.734621   4.379919   5.787050   4.334331   6.258939
    26  H    4.066469   3.475472   5.100436   4.094375   5.018148
    27  H    3.113420   2.696796   4.113475   2.757833   5.139477
    28  C    5.430928   5.497920   6.470232   5.302099   5.460282
    29  H    5.756251   5.657084   6.794383   5.793953   5.425297
    30  H    6.153412   6.197074   7.213015   5.869295   6.501793
    31  H    5.762122   5.994188   6.726792   5.671610   5.432197
    32  C    5.951487   6.604561   6.591688   5.062871   7.645270
    33  H    5.723860   6.321765   6.314918   4.726109   7.821026
    34  H    6.622736   7.378297   7.146808   5.756927   8.205564
    35  H    6.639753   7.181766   7.382339   5.773847   8.216346
    36  C    5.720567   6.431467   6.415092   5.324278   6.021709
    37  H    6.406606   6.994271   7.202086   5.994834   6.653370
    38  H    6.437503   7.244086   7.011304   6.020955   6.694752
    39  H    5.349765   6.048487   6.024265   5.162158   5.152441
    40  H    5.575645   6.592137   5.501289   5.674269   5.058063
                   21         22         23         24         25
    21  H    0.000000
    22  H    1.773213   0.000000
    23  H    1.773952   1.768952   0.000000
    24  C    6.039134   4.968728   5.678892   0.000000
    25  H    7.123862   6.044406   6.704709   1.094288   0.000000
    26  H    5.909082   4.585776   5.500774   1.094237   1.772811
    27  H    5.843218   4.960308   5.806919   1.094455   1.768259
    28  C    6.495022   5.523700   5.344901   3.106277   3.293071
    29  H    6.507193   5.302735   5.267509   3.291960   3.528869
    30  H    7.520732   6.551287   6.425946   3.379491   3.202184
    31  H    6.437068   5.661130   5.132626   4.041500   4.311999
    32  C    8.195622   8.213397   7.846645   5.433848   5.382512
    33  H    8.314780   8.329938   8.165898   5.306565   5.216484
    34  H    8.674563   8.873191   8.352342   6.472609   6.466171
    35  H    8.866803   8.707058   8.359700   5.487994   5.249128
    36  C    6.692281   6.706892   5.814800   5.434038   5.737551
    37  H    7.428316   7.225121   6.396063   5.461566   5.599610
    38  H    7.254531   7.478547   6.439121   6.478557   6.773591
    39  H    5.843566   5.864503   4.832120   5.337762   5.810743
    40  H    4.958367   6.143284   4.851615   7.827000   8.606424
                   26         27         28         29         30
    26  H    0.000000
    27  H    1.775068   0.000000
    28  C    3.380291   4.040850   0.000000
    29  H    3.201874   4.310547   1.094364   0.000000
    30  H    3.778034   4.337394   1.094296   1.772955   0.000000
    31  H    4.338596   4.876009   1.094290   1.768196   1.774969
    32  C    6.478532   5.409431   5.169755   6.242905   4.985794
    33  H    6.389467   5.095885   5.657147   6.680308   5.468125
    34  H    7.503104   6.417529   6.028269   7.114075   5.878239
    35  H    6.516830   5.629598   4.951857   6.023673   4.550593
    36  C    6.164010   5.775331   3.740230   4.721689   4.012805
    37  H    6.164229   5.969241   3.341472   4.334350   3.390134
    38  H    7.231346   6.749400   4.807656   5.772675   5.035291
    39  H    5.915189   5.713982   3.520864   4.349386   4.069226
    40  H    8.319286   7.713882   7.100972   7.729284   7.847481
                   31         32         33         34         35
    31  H    0.000000
    32  C    5.139192   0.000000
    33  H    5.799146   1.093947   0.000000
    34  H    5.848233   1.093934   1.771535   0.000000
    35  H    4.963305   1.093925   1.771488   1.774795   0.000000
    36  C    3.095317   3.121010   4.050477   3.360303   3.350741
    37  H    2.663990   3.369019   4.349777   3.706847   3.233495
    38  H    4.091913   3.344980   4.337758   3.218025   3.653835
    39  H    2.750770   4.056176   4.879845   4.344069   4.348915
    40  H    6.489395   6.248086   6.728755   6.081463   7.076055
                   36         37         38         39         40
    36  C    0.000000
    37  H    1.094836   0.000000
    38  H    1.094871   1.770469   0.000000
    39  H    1.096887   1.772622   1.774125   0.000000
    40  H    4.541208   5.574411   4.277110   4.028785   0.000000
 Stoichiometry    C8H24O4Si4
 Framework group  C1[X(C8H24O4Si4)]
 Deg. of freedom   114
 Full point group                 C1      NOp   1
 Largest Abelian subgroup         C1      NOp   1
 Largest concise Abelian subgroup C1      NOp   1
                         Standard orientation:                         
 ---------------------------------------------------------------------
 Center     Atomic      Atomic             Coordinates (Angstroms)
 Number     Number       Type             X           Y           Z
 ---------------------------------------------------------------------
      1          8           0       -1.306690    1.267531   -0.596636
      2          8           0        1.382663    1.147980   -0.588601
      3          8           0        1.311378   -1.271969    0.592989
      4          8           0       -1.384501   -1.154534    0.602053
      5         14           0       -2.304686    0.092811   -0.007520
      6         14           0        2.312061   -0.084484    0.011576
      7         14           0        0.077932    2.071061   -0.162157
      8         14           0       -0.068212   -2.060516    0.139745
      9          6           0       -3.298934    0.677328    1.455954
     10          1           0       -4.095904    1.305986    1.117537
     11          1           0       -2.666376    1.229300    2.119352
     12          6           0       -3.384475   -0.511748   -1.391667
     13          1           0       -4.017195   -1.334949   -1.045420
     14          1           0       -4.033250    0.291062   -1.754693
     15          1           0       -2.781121   -0.863609   -2.233741
     16          6           0       -0.089406   -2.267585   -1.716751
     17          1           0        0.767990   -2.859618   -2.053280
     18          1           0       -1.000827   -2.776549   -2.046438
     19          1           0       -0.044305   -1.291821   -2.215455
     20          6           0       -0.158154   -3.660937    1.078327
     21          1           0       -1.071699   -4.211667    0.833565
     22          1           0        0.699244   -4.300127    0.848377
     23          1           0       -0.152792   -3.466559    2.155431
     24          6           0        3.334938   -0.738603   -1.400383
     25          1           0        4.061627    0.009549   -1.731531
     26          1           0        3.881790   -1.639860   -1.107057
     27          1           0        2.696119   -0.984882   -2.254250
     28          6           0        3.342965    0.513301    1.442438
     29          1           0        4.020853   -0.274285    1.785669
     30          1           0        3.944386    1.382471    1.159027
     31          1           0        2.704413    0.795294    2.285173
     32          6           0        0.142898    3.650820   -1.134755
     33          1           0        0.151954    3.430202   -2.206186
     34          1           0       -0.729358    4.276229   -0.923275
     35          1           0        1.044454    4.223130   -0.897416
     36          6           0        0.080112    2.324895    1.689902
     37          1           0        0.998217    2.823566    2.017129
     38          1           0       -0.768288    2.941302    2.004547
     39          1           0        0.013731    1.362363    2.211713
     40          1           0       -3.705463   -0.167648    1.971367
 ---------------------------------------------------------------------
 Rotational constants (GHZ):           0.4069705           0.3580465           0.2454728
 Standard basis: 6-31+G(2df,p) (6D, 7F)
 There are   696 symmetry adapted cartesian basis functions of A   symmetry.
 There are   648 symmetry adapted basis functions of A   symmetry.
   648 basis functions,  1032 primitive gaussians,   696 cartesian basis functions
    80 alpha electrons       80 beta electrons
       nuclear repulsion energy      1917.5530716932 Hartrees.
 NAtoms=   40 NActive=   40 NUniq=   40 SFac= 1.00D+00 NAtFMM=   60 NAOKFM=F Big=F
 Integral buffers will be    131072 words long.
 Raffenetti 2 integral format.
 Two-electron integral symmetry is turned on.
 One-electron integrals computed using PRISM.
 NBasis=   648 RedAO= T EigKep=  1.79D-05  NBF=   648
 NBsUse=   648 1.00D-06 EigRej= -1.00D+00 NBFU=   648
 ExpMin= 3.31D-02 ExpMax= 1.61D+04 ExpMxC= 2.43D+03 IAcc=3 IRadAn=         5 AccDes= 0.00D+00
 Harris functional with IExCor=  402 and IRadAn=       5 diagonalized for initial guess.
 HarFok:  IExCor=  402 AccDes= 0.00D+00 IRadAn=         5 IDoV= 1 UseB2=F ITyADJ=14
 ICtDFT=  3500011 ScaDFX=  1.000000  1.000000  1.000000  1.000000
 FoFCou: FMM=F IPFlag=           0 FMFlag=      100000 FMFlg1=           0
         NFxFlg=           0 DoJE=T BraDBF=F KetDBF=T FulRan=T
         wScrn=  0.000000 ICntrl=       500 IOpCl=  0 I1Cent=   200000004 NGrid=           0
         NMat0=    1 NMatS0=      1 NMatT0=    0 NMatD0=    1 NMtDS0=    0 NMtDT0=    0
 Petite list used in FoFCou.
 Requested convergence on RMS density matrix=1.00D-08 within 128 cycles.
 Requested convergence on MAX density matrix=1.00D-06.
 Requested convergence on             energy=1.00D-06.
 No special actions if energy rises.
 SCF Done:  E(RB3LYP) =  -1778.82122181     A.U. after   12 cycles
            NFock= 12  Conv=0.38D-08     -V/T= 2.0051
 DoSCS=F DFT=T ScalE2(SS,OS)=  1.000000  1.000000
 Range of M.O.s used for correlation:     1   648
 NBasis=   648 NAE=    80 NBE=    80 NFC=     0 NFV=     0
 NROrb=    648 NOA=    80 NOB=    80 NVA=   568 NVB=   568

 **** Warning!!: The largest alpha MO coefficient is  0.44402225D+02

 Symmetrizing basis deriv contribution to polar:
 IMax=3 JMax=2 DiffMx= 0.00D+00
 G2DrvN: will do    41 centers at a time, making    1 passes.
 Calling FoFCou, ICntrl=  3107 FMM=F I1Cent=   0 AccDes= 0.00D+00.
 End of G2Drv F.D. properties file   721 does not exist.
 End of G2Drv F.D. properties file   722 does not exist.
 End of G2Drv F.D. properties file   788 does not exist.
          IDoAtm=1111111111111111111111111111111111111111
          Differentiating once with respect to nuclear coordinates.
 CalDSu exits because no D1Ps are significant.
          There are   123 degrees of freedom in the 1st order CPHF.  IDoFFX=6 NUNeed=     0.
    117 vectors produced by pass  0 Test12= 4.54D-14 1.00D-09 XBig12= 1.12D-01 2.90D-02.
 AX will form   117 AO Fock derivatives at one time.
    117 vectors produced by pass  1 Test12= 4.54D-14 1.00D-09 XBig12= 9.75D-03 7.48D-03.
    117 vectors produced by pass  2 Test12= 4.54D-14 1.00D-09 XBig12= 1.92D-04 1.62D-03.
    117 vectors produced by pass  3 Test12= 4.54D-14 1.00D-09 XBig12= 1.30D-06 1.09D-04.
    117 vectors produced by pass  4 Test12= 4.54D-14 1.00D-09 XBig12= 1.65D-09 3.36D-06.
     88 vectors produced by pass  5 Test12= 4.54D-14 1.00D-09 XBig12= 1.58D-12 8.50D-08.
     12 vectors produced by pass  6 Test12= 4.54D-14 1.00D-09 XBig12= 2.20D-15 3.14D-09.
     12 vectors produced by pass  7 Test12= 4.54D-14 1.00D-09 XBig12= 1.81D-15 5.45D-09.
     12 vectors produced by pass  8 Test12= 4.54D-14 1.00D-09 XBig12= 2.96D-15 5.54D-09.
     12 vectors produced by pass  9 Test12= 4.54D-14 1.00D-09 XBig12= 7.17D-15 9.58D-09.
     12 vectors produced by pass 10 Test12= 4.54D-14 1.00D-09 XBig12= 7.08D-15 8.37D-09.
     11 vectors produced by pass 11 Test12= 4.54D-14 1.00D-09 XBig12= 2.70D-15 4.03D-09.
     11 vectors produced by pass 12 Test12= 4.54D-14 1.00D-09 XBig12= 8.07D-15 6.28D-09.
      9 vectors produced by pass 13 Test12= 4.54D-14 1.00D-09 XBig12= 2.29D-15 3.57D-09.
      9 vectors produced by pass 14 Test12= 4.54D-14 1.00D-09 XBig12= 6.10D-15 5.99D-09.
      6 vectors produced by pass 15 Test12= 4.54D-14 1.00D-09 XBig12= 2.75D-15 3.39D-09.
      6 vectors produced by pass 16 Test12= 4.54D-14 1.00D-09 XBig12= 5.29D-15 5.91D-09.
      6 vectors produced by pass 17 Test12= 4.54D-14 1.00D-09 XBig12= 3.54D-15 4.22D-09.
      6 vectors produced by pass 18 Test12= 4.54D-14 1.00D-09 XBig12= 3.89D-15 3.85D-09.
      5 vectors produced by pass 19 Test12= 4.54D-14 1.00D-09 XBig12= 3.32D-15 3.97D-09.
      5 vectors produced by pass 20 Test12= 4.54D-14 1.00D-09 XBig12= 4.08D-15 3.91D-09.
      5 vectors produced by pass 21 Test12= 4.54D-14 1.00D-09 XBig12= 2.67D-15 3.36D-09.
      5 vectors produced by pass 22 Test12= 4.54D-14 1.00D-09 XBig12= 2.54D-15 3.34D-09.
      5 vectors produced by pass 23 Test12= 4.54D-14 1.00D-09 XBig12= 2.75D-15 3.31D-09.
      5 vectors produced by pass 24 Test12= 4.54D-14 1.00D-09 XBig12= 4.56D-15 4.13D-09.
      4 vectors produced by pass 25 Test12= 4.54D-14 1.00D-09 XBig12= 1.30D-15 2.60D-09.
      4 vectors produced by pass 26 Test12= 4.54D-14 1.00D-09 XBig12= 5.43D-15 5.14D-09.
      4 vectors produced by pass 27 Test12= 4.54D-14 1.00D-09 XBig12= 2.65D-15 4.05D-09.
      4 vectors produced by pass 28 Test12= 4.54D-14 1.00D-09 XBig12= 2.81D-15 4.22D-09.
      4 vectors produced by pass 29 Test12= 4.54D-14 1.00D-09 XBig12= 2.61D-15 3.67D-09.
      4 vectors produced by pass 30 Test12= 4.54D-14 1.00D-09 XBig12= 3.15D-15 4.41D-09.
      4 vectors produced by pass 31 Test12= 4.54D-14 1.00D-09 XBig12= 2.07D-15 3.02D-09.
      4 vectors produced by pass 32 Test12= 4.54D-14 1.00D-09 XBig12= 2.29D-15 3.79D-09.
      4 vectors produced by pass 33 Test12= 4.54D-14 1.00D-09 XBig12= 3.07D-15 3.32D-09.
      4 vectors produced by pass 34 Test12= 4.54D-14 1.00D-09 XBig12= 1.12D-15 2.42D-09.
      4 vectors produced by pass 35 Test12= 4.54D-14 1.00D-09 XBig12= 3.96D-15 3.82D-09.
      4 vectors produced by pass 36 Test12= 4.54D-14 1.00D-09 XBig12= 4.59D-15 3.45D-09.
      4 vectors produced by pass 37 Test12= 4.54D-14 1.00D-09 XBig12= 1.40D-15 2.38D-09.
      4 vectors produced by pass 38 Test12= 4.54D-14 1.00D-09 XBig12= 2.38D-15 3.44D-09.
      4 vectors produced by pass 39 Test12= 4.54D-14 1.00D-09 XBig12= 1.46D-15 2.59D-09.
      4 vectors produced by pass 40 Test12= 4.54D-14 1.00D-09 XBig12= 2.89D-15 3.36D-09.
      4 vectors produced by pass 41 Test12= 4.54D-14 1.00D-09 XBig12= 1.78D-15 3.55D-09.
      4 vectors produced by pass 42 Test12= 4.54D-14 1.00D-09 XBig12= 2.99D-15 3.34D-09.
      4 vectors produced by pass 43 Test12= 4.54D-14 1.00D-09 XBig12= 3.61D-15 4.31D-09.
      4 vectors produced by pass 44 Test12= 4.54D-14 1.00D-09 XBig12= 2.04D-15 3.63D-09.
      4 vectors produced by pass 45 Test12= 4.54D-14 1.00D-09 XBig12= 2.72D-15 3.51D-09.
      2 vectors produced by pass 46 Test12= 4.54D-14 1.00D-09 XBig12= 1.35D-15 2.25D-09.
 InvSVY:  IOpt=1 It=  1 EMax= 2.78D-16
 Solved reduced A of dimension   913 with   123 vectors.
 End of Minotr F.D. properties file   721 does not exist.
 End of Minotr F.D. properties file   722 does not exist.
 End of Minotr F.D. properties file   788 does not exist.

 **********************************************************************

            Population analysis using the SCF density.

 **********************************************************************

 Orbital symmetries:
       Occupied  (A) (A) (A) (A) (A) (A) (A) (A) (A) (A) (A) (A)
                 (A) (A) (A) (A) (A) (A) (A) (A) (A) (A) (A) (A)
                 (A) (A) (A) (A) (A) (A) (A) (A) (A) (A) (A) (A)
                 (A) (A) (A) (A) (A) (A) (A) (A) (A) (A) (A) (A)
                 (A) (A) (A) (A) (A) (A) (A) (A) (A) (A) (A) (A)
                 (A) (A) (A) (A) (A) (A) (A) (A) (A) (A) (A) (A)
                 (A) (A) (A) (A) (A) (A) (A) (A)
       Virtual   (A) (A) (A) (A) (A) (A) (A) (A) (A) (A) (A) (A)
                 (A) (A) (A) (A) (A) (A) (A) (A) (A) (A) (A) (A)
                 (A) (A) (A) (A) (A) (A) (A) (A) (A) (A) (A) (A)
                 (A) (A) (A) (A) (A) (A) (A) (A) (A) (A) (A) (A)
                 (A) (A) (A) (A) (A) (A) (A) (A) (A) (A) (A) (A)
                 (A) (A) (A) (A) (A) (A) (A) (A) (A) (A) (A) (A)
                 (A) (A) (A) (A) (A) (A) (A) (A) (A) (A) (A) (A)
                 (A) (A) (A) (A) (A) (A) (A) (A) (A) (A) (A) (A)
                 (A) (A) (A) (A) (A) (A) (A) (A) (A) (A) (A) (A)
                 (A) (A) (A) (A) (A) (A) (A) (A) (A) (A) (A) (A)
                 (A) (A) (A) (A) (A) (A) (A) (A) (A) (A) (A) (A)
                 (A) (A) (A) (A) (A) (A) (A) (A) (A) (A) (A) (A)
                 (A) (A) (A) (A) (A) (A) (A) (A) (A) (A) (A) (A)
                 (A) (A) (A) (A) (A) (A) (A) (A) (A) (A) (A) (A)
                 (A) (A) (A) (A) (A) (A) (A) (A) (A) (A) (A) (A)
                 (A) (A) (A) (A) (A) (A) (A) (A) (A) (A) (A) (A)
                 (A) (A) (A) (A) (A) (A) (A) (A) (A) (A) (A) (A)
                 (A) (A) (A) (A) (A) (A) (A) (A) (A) (A) (A) (A)
                 (A) (A) (A) (A) (A) (A) (A) (A) (A) (A) (A) (A)
                 (A) (A) (A) (A) (A) (A) (A) (A) (A) (A) (A) (A)
                 (A) (A) (A) (A) (A) (A) (A) (A) (A) (A) (A) (A)
                 (A) (A) (A) (A) (A) (A) (A) (A) (A) (A) (A) (A)
                 (A) (A) (A) (A) (A) (A) (A) (A) (A) (A) (A) (A)
                 (A) (A) (A) (A) (A) (A) (A) (A) (A) (A) (A) (A)
                 (A) (A) (A) (A) (A) (A) (A) (A) (A) (A) (A) (A)
                 (A) (A) (A) (A) (A) (A) (A) (A) (A) (A) (A) (A)
                 (A) (A) (A) (A) (A) (A) (A) (A) (A) (A) (A) (A)
                 (A) (A) (A) (A) (A) (A) (A) (A) (A) (A) (A) (A)
                 (A) (A) (A) (A) (A) (A) (A) (A) (A) (A) (A) (A)
                 (A) (A) (A) (A) (A) (A) (A) (A) (A) (A) (A) (A)
                 (A) (A) (A) (A) (A) (A) (A) (A) (A) (A) (A) (A)
                 (A) (A) (A) (A) (A) (A) (A) (A) (A) (A) (A) (A)
                 (A) (A) (A) (A) (A) (A) (A) (A) (A) (A) (A) (A)
                 (A) (A) (A) (A) (A) (A) (A) (A) (A) (A) (A) (A)
                 (A) (A) (A) (A) (A) (A) (A) (A) (A) (A) (A) (A)
                 (A) (A) (A) (A) (A) (A) (A) (A) (A) (A) (A) (A)
                 (A) (A) (A) (A) (A) (A) (A) (A) (A) (A) (A) (A)
                 (A) (A) (A) (A) (A) (A) (A) (A) (A) (A) (A) (A)
                 (A) (A) (A) (A) (A) (A) (A) (A) (A) (A) (A) (A)
                 (A) (A) (A) (A) (A) (A) (A) (A) (A) (A) (A) (A)
                 (A) (A) (A) (A) (A) (A) (A) (A) (A) (A) (A) (A)
                 (A) (A) (A) (A) (A) (A) (A) (A) (A) (A) (A) (A)
                 (A) (A) (A) (A) (A) (A) (A) (A) (A) (A) (A) (A)
                 (A) (A) (A) (A) (A) (A) (A) (A) (A) (A) (A) (A)
                 (A) (A) (A) (A) (A) (A) (A) (A) (A) (A) (A) (A)
                 (A) (A) (A) (A) (A) (A) (A) (A) (A) (A) (A) (A)
                 (A) (A) (A) (A) (A) (A) (A) (A) (A) (A) (A) (A)
                 (A) (A) (A) (A)
 The electronic state is 1-A.
 Alpha  occ. eigenvalues --  -66.15921 -66.15848 -66.15597 -66.15483 -19.12687
 Alpha  occ. eigenvalues --  -19.12630 -19.12512 -19.12093 -10.16478 -10.16363
 Alpha  occ. eigenvalues --  -10.16307 -10.16288 -10.16253 -10.16215 -10.16018
 Alpha  occ. eigenvalues --  -10.15238  -5.29659  -5.29587  -5.29337  -5.29257
 Alpha  occ. eigenvalues --   -3.65751  -3.65707  -3.65619  -3.65523  -3.65427
 Alpha  occ. eigenvalues --   -3.65422  -3.65373  -3.65351  -3.65299  -3.65189
 Alpha  occ. eigenvalues --   -3.65111  -3.65021  -0.99869  -0.97956  -0.97554
 Alpha  occ. eigenvalues --   -0.95528  -0.71215  -0.70674  -0.70611  -0.70289
 Alpha  occ. eigenvalues --   -0.68751  -0.68528  -0.68440  -0.68181  -0.56465
 Alpha  occ. eigenvalues --   -0.53167  -0.52483  -0.47337  -0.42920  -0.42680
 Alpha  occ. eigenvalues --   -0.42517  -0.42273  -0.42077  -0.41640  -0.41181
 Alpha  occ. eigenvalues --   -0.40994  -0.40630  -0.40478  -0.40019  -0.39855
 Alpha  occ. eigenvalues --   -0.39511  -0.39360  -0.39266  -0.39130  -0.38774
 Alpha  occ. eigenvalues --   -0.38441  -0.38012  -0.36845  -0.36233  -0.36063
 Alpha  occ. eigenvalues --   -0.35471  -0.35060  -0.33913  -0.33399  -0.31606
 Alpha  occ. eigenvalues --   -0.30821  -0.29526  -0.29022  -0.28301  -0.27570
 Alpha virt. eigenvalues --   -0.01400   0.00071   0.00184   0.01081   0.01770
 Alpha virt. eigenvalues --    0.02522   0.02878   0.04196   0.04221   0.04507
 Alpha virt. eigenvalues --    0.05182   0.05232   0.05527   0.05754   0.06215
 Alpha virt. eigenvalues --    0.06641   0.07128   0.07265   0.07574   0.07679
 Alpha virt. eigenvalues --    0.07816   0.08182   0.08592   0.09160   0.09337
 Alpha virt. eigenvalues --    0.09476   0.09656   0.09676   0.09788   0.10023
 Alpha virt. eigenvalues --    0.10599   0.11038   0.11695   0.11738   0.11795
 Alpha virt. eigenvalues --    0.12455   0.12557   0.12761   0.13248   0.13461
 Alpha virt. eigenvalues --    0.13855   0.14161   0.14574   0.14939   0.15046
 Alpha virt. eigenvalues --    0.15392   0.15924   0.16101   0.16556   0.16884
 Alpha virt. eigenvalues --    0.17083   0.17467   0.17705   0.18174   0.18554
 Alpha virt. eigenvalues --    0.18923   0.19226   0.19359   0.19804   0.20429
 Alpha virt. eigenvalues --    0.20704   0.21210   0.21435   0.21554   0.21772
 Alpha virt. eigenvalues --    0.22780   0.23060   0.23265   0.23683   0.24184
 Alpha virt. eigenvalues --    0.24496   0.24594   0.24914   0.25202   0.26514
 Alpha virt. eigenvalues --    0.26583   0.27330   0.27827   0.28458   0.28820
 Alpha virt. eigenvalues --    0.31471   0.31840   0.32648   0.33252   0.34006
 Alpha virt. eigenvalues --    0.34423   0.34817   0.35337   0.35593   0.36159
 Alpha virt. eigenvalues --    0.36270   0.36850   0.37340   0.37683   0.37816
 Alpha virt. eigenvalues --    0.38641   0.38978   0.39285   0.39318   0.39577
 Alpha virt. eigenvalues --    0.40189   0.40598   0.42153   0.44440   0.44769
 Alpha virt. eigenvalues --    0.45286   0.45620   0.45882   0.46117   0.46793
 Alpha virt. eigenvalues --    0.47035   0.47535   0.48171   0.48340   0.49165
 Alpha virt. eigenvalues --    0.50175   0.51880   0.52179   0.52440   0.54889
 Alpha virt. eigenvalues --    0.55677   0.56644   0.59175   0.59771   0.60221
 Alpha virt. eigenvalues --    0.60520   0.61316   0.61862   0.62047   0.63507
 Alpha virt. eigenvalues --    0.65358   0.65793   0.66517   0.66881   0.67978
 Alpha virt. eigenvalues --    0.68603   0.70026   0.71252   0.71472   0.72152
 Alpha virt. eigenvalues --    0.72332   0.72894   0.73292   0.74067   0.75318
 Alpha virt. eigenvalues --    0.75861   0.76308   0.76727   0.77864   0.78322
 Alpha virt. eigenvalues --    0.78452   0.78749   0.79120   0.79650   0.79949
 Alpha virt. eigenvalues --    0.80208   0.80846   0.81357   0.81637   0.82242
 Alpha virt. eigenvalues --    0.82942   0.83095   0.83752   0.83964   0.84172
 Alpha virt. eigenvalues --    0.84547   0.85268   0.85434   0.86047   0.86474
 Alpha virt. eigenvalues --    0.86677   0.87528   0.87863   0.88040   0.88569
 Alpha virt. eigenvalues --    0.88903   0.89587   0.90106   0.90338   0.91049
 Alpha virt. eigenvalues --    0.93023   0.94059   0.94142   0.95314   0.96478
 Alpha virt. eigenvalues --    0.96824   0.97581   0.98240   0.98834   1.01018
 Alpha virt. eigenvalues --    1.02048   1.02936   1.03636   1.04067   1.05406
 Alpha virt. eigenvalues --    1.06327   1.07340   1.07635   1.08765   1.10594
 Alpha virt. eigenvalues --    1.11111   1.11600   1.13628   1.14576   1.15456
 Alpha virt. eigenvalues --    1.16469   1.17590   1.18073   1.19496   1.20641
 Alpha virt. eigenvalues --    1.21320   1.23071   1.23984   1.24493   1.24810
 Alpha virt. eigenvalues --    1.26631   1.26882   1.28125   1.28759   1.29613
 Alpha virt. eigenvalues --    1.32827   1.33121   1.34346   1.34645   1.34884
 Alpha virt. eigenvalues --    1.35610   1.37099   1.38186   1.38979   1.40993
 Alpha virt. eigenvalues --    1.41401   1.41817   1.42328   1.42610   1.43051
 Alpha virt. eigenvalues --    1.44636   1.45589   1.46126   1.48631   1.49241
 Alpha virt. eigenvalues --    1.50041   1.50230   1.51938   1.52318   1.52791
 Alpha virt. eigenvalues --    1.54887   1.55290   1.56190   1.56475   1.57249
 Alpha virt. eigenvalues --    1.57410   1.57820   1.58243   1.59367   1.59710
 Alpha virt. eigenvalues --    1.59976   1.61616   1.62707   1.63453   1.63896
 Alpha virt. eigenvalues --    1.64394   1.66183   1.66891   1.68813   1.68951
 Alpha virt. eigenvalues --    1.69973   1.70987   1.72091   1.72367   1.75000
 Alpha virt. eigenvalues --    1.76844   1.77429   1.78339   1.79535   1.80450
 Alpha virt. eigenvalues --    1.80934   1.81078   1.81915   1.82531   1.85566
 Alpha virt. eigenvalues --    1.85819   1.88293   1.88668   1.88782   1.90244
 Alpha virt. eigenvalues --    1.90707   1.91207   1.92570   1.93512   1.94845
 Alpha virt. eigenvalues --    1.95031   1.95101   1.95808   1.96118   1.96398
 Alpha virt. eigenvalues --    1.96875   1.97105   1.97652   1.98233   1.98554
 Alpha virt. eigenvalues --    1.98847   1.98935   1.99009   1.99824   2.00445
 Alpha virt. eigenvalues --    2.01695   2.03062   2.05441   2.06359   2.07209
 Alpha virt. eigenvalues --    2.08537   2.09407   2.09675   2.11005   2.11420
 Alpha virt. eigenvalues --    2.15302   2.18542   2.19087   2.19319   2.19799
 Alpha virt. eigenvalues --    2.22367   2.23579   2.28093   2.32750   2.34537
 Alpha virt. eigenvalues --    2.36253   2.37839   2.38111   2.40163   2.41151
 Alpha virt. eigenvalues --    2.42984   2.43805   2.45465   2.46665   2.47115
 Alpha virt. eigenvalues --    2.48812   2.49166   2.50097   2.50762   2.51814
 Alpha virt. eigenvalues --    2.52475   2.52714   2.53127   2.54250   2.54989
 Alpha virt. eigenvalues --    2.55551   2.58295   2.59142   2.59839   2.60959
 Alpha virt. eigenvalues --    2.64533   2.64989   2.65917   2.67502   2.67531
 Alpha virt. eigenvalues --    2.72334   2.79342   2.79485   2.80057   2.81941
 Alpha virt. eigenvalues --    2.86058   2.87763   2.88058   2.88681   2.89306
 Alpha virt. eigenvalues --    2.89662   2.90060   2.91467   2.91913   2.92648
 Alpha virt. eigenvalues --    2.93706   2.94673   2.96999   2.97812   2.98066
 Alpha virt. eigenvalues --    2.98686   2.98927   2.99053   2.99561   2.99839
 Alpha virt. eigenvalues --    3.00234   3.00411   3.00432   3.00829   3.01180
 Alpha virt. eigenvalues --    3.01576   3.01824   3.02122   3.02443   3.02748
 Alpha virt. eigenvalues --    3.03745   3.04389   3.07988   3.09870   3.10800
 Alpha virt. eigenvalues --    3.12266   3.25600   3.31043   3.32224   3.34968
 Alpha virt. eigenvalues --    3.39130   3.39252   3.39515   3.42685   3.46754
 Alpha virt. eigenvalues --    3.47908   3.50803   3.52570   3.54429   3.54760
 Alpha virt. eigenvalues --    3.55599   3.55831   3.56253   3.56787   3.57045
 Alpha virt. eigenvalues --    3.58075   3.58232   3.61900   3.63875   3.64353
 Alpha virt. eigenvalues --    3.64991   3.65048   3.65254   3.65512   3.66577
 Alpha virt. eigenvalues --    3.67052   3.67292   3.68118   3.68712   3.69040
 Alpha virt. eigenvalues --    3.69412   3.69754   3.70124   3.70273   3.73905
 Alpha virt. eigenvalues --    3.76031   3.84129   3.90176   3.91746   3.95883
 Alpha virt. eigenvalues --    3.96980   3.97315   3.97900   3.98127   3.98511
 Alpha virt. eigenvalues --    3.98957   3.99246   3.99521   3.99959   4.00602
 Alpha virt. eigenvalues --    4.02240   4.05223   4.06963   4.09766   4.11357
 Alpha virt. eigenvalues --    4.20083   4.31402   4.33963   4.34814   4.36933
 Alpha virt. eigenvalues --    4.37854   4.38103   4.39804   4.41927   4.42946
 Alpha virt. eigenvalues --    4.44144   4.46826   4.47276   4.51553   4.52767
 Alpha virt. eigenvalues --    4.53165   4.53402   4.53801   4.54263   4.54322
 Alpha virt. eigenvalues --    4.55488   4.55599   4.56216   4.56588   4.57944
 Alpha virt. eigenvalues --    4.61411   4.62570   4.64586   4.66509   4.67897
 Alpha virt. eigenvalues --    4.69488   4.73204   4.73582   4.74084   4.75078
 Alpha virt. eigenvalues --    4.76787   4.77229   4.77730   4.78348   4.79373
 Alpha virt. eigenvalues --    4.81169   4.81436   4.82217   4.83971   4.84123
 Alpha virt. eigenvalues --    4.85798   4.86676   4.87361   4.88615   4.89032
 Alpha virt. eigenvalues --    4.89703   4.89936   4.90121   4.92195   4.93233
 Alpha virt. eigenvalues --    4.93651   4.94472   4.95148   4.97894   4.97985
 Alpha virt. eigenvalues --    5.02139   5.07717   5.08031   5.09286   5.10872
 Alpha virt. eigenvalues --    5.11760   5.13955   5.17659   5.18267   5.27837
 Alpha virt. eigenvalues --    5.29728   5.30141   5.31162   5.31712   5.32558
 Alpha virt. eigenvalues --    5.33546   5.35188   5.36147   5.37539   5.39860
 Alpha virt. eigenvalues --    5.43402   5.45750   5.47217   5.49631   5.50303
 Alpha virt. eigenvalues --    5.51440   5.55039   5.56594   5.59405   5.59717
 Alpha virt. eigenvalues --    5.61049   5.61994   5.68325   5.75852   5.96281
 Alpha virt. eigenvalues --    6.10398   6.14291   7.12503   7.13982   7.16725
 Alpha virt. eigenvalues --    7.22226  11.75101  11.77292  11.80889  11.82331
 Alpha virt. eigenvalues --   11.91341  12.03448  12.08953  12.31144  13.55643
 Alpha virt. eigenvalues --   13.76823  13.88270  13.98456
          Condensed to atoms (all electrons):
               1          2          3          4          5          6
     1  O    7.672426   0.022934   0.009806   0.042515   0.068825   0.035828
     2  O    0.022934   7.708110   0.046248   0.010946   0.038092   0.038814
     3  O    0.009806   0.046248   7.702182   0.019987   0.037237   0.040933
     4  O    0.042515   0.010946   0.019987   7.722274   0.075546   0.037851
     5  Si   0.068825   0.038092   0.037237   0.075546  14.885933   0.199591
     6  Si   0.035828   0.038814   0.040933   0.037851   0.199591  15.006058
     7  Si  -0.018287  -0.017277  -0.006155  -0.015393  -0.754883  -0.771782
     8  Si  -0.014520  -0.010908  -0.006224  -0.008769  -0.670912  -0.748405
     9  C   -0.015599  -0.000680   0.004972  -0.001803   0.094496  -0.009437
    10  H   -0.001989   0.000019   0.000023   0.002733  -0.052402  -0.000312
    11  H   -0.003593  -0.000113   0.000067  -0.000618  -0.043932  -0.001090
    12  C   -0.010330   0.006156  -0.000436  -0.013881   0.156278  -0.011761
    13  H    0.003795   0.000020   0.000033  -0.004388  -0.047191  -0.000454
    14  H   -0.002215   0.000039   0.000025   0.002523  -0.040240   0.001388
    15  H   -0.004244   0.000018  -0.000100  -0.002060  -0.045425  -0.001659
    16  C    0.000525  -0.000398   0.005058   0.003623   0.031703   0.037798
    17  H    0.000619   0.000128  -0.000934   0.004815  -0.004254   0.013245
    18  H    0.000097   0.000639   0.004933  -0.000742   0.013343  -0.004497
    19  H   -0.001282  -0.001268  -0.004016  -0.003639   0.008699   0.009575
    20  C    0.000571   0.000396   0.021351   0.014855   0.002389  -0.000307
    21  H   -0.000046   0.000019   0.003444  -0.003881  -0.002639  -0.000370
    22  H    0.000016  -0.000051  -0.004555   0.003286  -0.000148  -0.002903
    23  H   -0.000028  -0.000033   0.001481   0.001163  -0.002097  -0.002157
    24  C    0.006021  -0.004798  -0.011362  -0.000504  -0.010477   0.135457
    25  H    0.000028  -0.000079   0.002590   0.000024   0.001308  -0.043811
    26  H    0.000019   0.003447  -0.004563   0.000028  -0.000442  -0.047001
    27  H    0.000007  -0.005776  -0.001181  -0.000099  -0.001830  -0.046708
    28  C    0.000478  -0.011432  -0.006170   0.006009  -0.011095   0.140496
    29  H    0.000026   0.002421  -0.000432   0.000030   0.001584  -0.041105
    30  H    0.000024  -0.004245   0.003536   0.000024  -0.000496  -0.047831
    31  H   -0.000095  -0.001017  -0.005595   0.000040  -0.001782  -0.048228
    32  C    0.020361   0.018406   0.000812   0.001347  -0.000309   0.003194
    33  H    0.001317   0.001097  -0.000035  -0.000032  -0.002787  -0.003021
    34  H   -0.004438   0.003383   0.000015  -0.000053  -0.002872  -0.000597
    35  H    0.003336  -0.004096  -0.000045   0.000018  -0.000227  -0.002423
    36  C    0.007380   0.006292   0.000535   0.000223   0.040883   0.039926
    37  H    0.004435  -0.001034   0.000104   0.000540  -0.004746   0.013097
    38  H   -0.000471   0.004947   0.000559   0.000241   0.015143  -0.003408
    39  H   -0.003698  -0.003890  -0.001007  -0.001127   0.007220   0.007432
    40  H    0.003239   0.000029   0.000026  -0.006294  -0.041342   0.001508
               7          8          9         10         11         12
     1  O   -0.018287  -0.014520  -0.015599  -0.001989  -0.003593  -0.010330
     2  O   -0.017277  -0.010908  -0.000680   0.000019  -0.000113   0.006156
     3  O   -0.006155  -0.006224   0.004972   0.000023   0.000067  -0.000436
     4  O   -0.015393  -0.008769  -0.001803   0.002733  -0.000618  -0.013881
     5  Si  -0.754883  -0.670912   0.094496  -0.052402  -0.043932   0.156278
     6  Si  -0.771782  -0.748405  -0.009437  -0.000312  -0.001090  -0.011761
     7  Si  15.254429   0.185195   0.053407   0.000995   0.002355   0.006583
     8  Si   0.185195  15.078427   0.023082   0.000920   0.002174   0.047712
     9  C    0.053407   0.023082   5.268445   0.424838   0.420500  -0.045804
    10  H    0.000995   0.000920   0.424838   0.518254  -0.027177  -0.007339
    11  H    0.002355   0.002174   0.420500  -0.027177   0.510660  -0.002347
    12  C    0.006583   0.047712  -0.045804  -0.007339  -0.002347   5.253067
    13  H    0.000331   0.000492  -0.005538   0.000114   0.000023   0.418105
    14  H   -0.000839  -0.004670  -0.002934  -0.000068   0.000018   0.412274
    15  H    0.002874   0.002825  -0.002785   0.000031  -0.000016   0.420122
    16  C   -0.012283   0.071146  -0.000022  -0.000048   0.000059  -0.014832
    17  H   -0.000381  -0.069089  -0.000006  -0.000000  -0.000000   0.001160
    18  H   -0.000177  -0.068331  -0.000486   0.000000  -0.000000  -0.004422
    19  H   -0.006837  -0.040430  -0.000384   0.000000  -0.000000  -0.000977
    20  C   -0.010827   0.216079  -0.005770  -0.000091  -0.000154   0.004176
    21  H    0.000098  -0.038035   0.000206   0.000000   0.000000   0.000473
    22  H    0.000108  -0.036030  -0.000058  -0.000000   0.000000  -0.000007
    23  H   -0.000042  -0.031378   0.000027   0.000000   0.000000   0.000139
    24  C    0.007251   0.058340  -0.002391  -0.000003  -0.000012   0.003308
    25  H   -0.000437  -0.004165  -0.000010  -0.000000  -0.000000  -0.000008
    26  H    0.000307   0.000261  -0.000003   0.000000   0.000000   0.000015
    27  H    0.003646   0.005463  -0.000005   0.000000   0.000000   0.000050
    28  C    0.057785   0.009694   0.002704   0.000010   0.000040  -0.002140
    29  H   -0.004934  -0.001157  -0.000017  -0.000000   0.000000  -0.000010
    30  H    0.001205   0.000264   0.000018   0.000000  -0.000000  -0.000003
    31  H    0.005617   0.003677   0.000059   0.000000  -0.000000  -0.000014
    32  C    0.214903  -0.011675   0.004071   0.000290   0.000318  -0.006345
    33  H   -0.029053   0.000165   0.000108   0.000000   0.000000   0.000095
    34  H   -0.035817   0.000064   0.000268  -0.000001  -0.000003   0.000207
    35  H   -0.036311   0.000012  -0.000012  -0.000000   0.000000  -0.000044
    36  C    0.047216  -0.009648  -0.018017   0.000226  -0.000634   0.000793
    37  H   -0.067977  -0.000615   0.001532  -0.000001   0.000021  -0.000044
    38  H   -0.071921  -0.000200  -0.005043  -0.000014   0.000587  -0.000318
    39  H   -0.039951  -0.004897  -0.001000   0.000014   0.000145  -0.000342
    40  H   -0.003653   0.000874   0.421261  -0.026279  -0.024952  -0.001408
              13         14         15         16         17         18
     1  O    0.003795  -0.002215  -0.004244   0.000525   0.000619   0.000097
     2  O    0.000020   0.000039   0.000018  -0.000398   0.000128   0.000639
     3  O    0.000033   0.000025  -0.000100   0.005058  -0.000934   0.004933
     4  O   -0.004388   0.002523  -0.002060   0.003623   0.004815  -0.000742
     5  Si  -0.047191  -0.040240  -0.045425   0.031703  -0.004254   0.013343
     6  Si  -0.000454   0.001388  -0.001659   0.037798   0.013245  -0.004497
     7  Si   0.000331  -0.000839   0.002874  -0.012283  -0.000381  -0.000177
     8  Si   0.000492  -0.004670   0.002825   0.071146  -0.069089  -0.068331
     9  C   -0.005538  -0.002934  -0.002785  -0.000022  -0.000006  -0.000486
    10  H    0.000114  -0.000068   0.000031  -0.000048  -0.000000   0.000000
    11  H    0.000023   0.000018  -0.000016   0.000059  -0.000000  -0.000000
    12  C    0.418105   0.412274   0.420122  -0.014832   0.001160  -0.004422
    13  H    0.512152  -0.025033  -0.025698   0.000552  -0.000000  -0.000032
    14  H   -0.025033   0.509265  -0.024032   0.000317  -0.000000   0.000015
    15  H   -0.025698  -0.024032   0.504324   0.000344   0.000032   0.000016
    16  C    0.000552   0.000317   0.000344   5.322261   0.422522   0.422264
    17  H   -0.000000  -0.000000   0.000032   0.422522   0.515330  -0.024227
    18  H   -0.000032   0.000015   0.000016   0.422264  -0.024227   0.514994
    19  H    0.000006   0.000014   0.000173   0.407089  -0.025418  -0.025409
    20  C    0.000356   0.000079   0.000171  -0.016995  -0.001628  -0.001610
    21  H   -0.000002  -0.000000  -0.000002  -0.000400   0.000060  -0.000053
    22  H   -0.000000  -0.000000   0.000000  -0.000763  -0.000043   0.000061
    23  H   -0.000000   0.000000  -0.000000  -0.007717   0.000010   0.000010
    24  C    0.000014  -0.000011   0.000058  -0.017240  -0.004039   0.000999
    25  H    0.000000  -0.000000   0.000000   0.000097   0.000014  -0.000000
    26  H    0.000000   0.000000   0.000000   0.000701  -0.000036   0.000000
    27  H    0.000000   0.000000   0.000000  -0.000067  -0.000134   0.000032
    28  C   -0.000002  -0.000010  -0.000008   0.000376  -0.000381  -0.000010
    29  H   -0.000000   0.000000   0.000000  -0.000209   0.000000  -0.000000
    30  H    0.000000  -0.000000   0.000000   0.000005   0.000000  -0.000000
    31  H    0.000000   0.000000   0.000000   0.000023   0.000000   0.000000
    32  C   -0.000058  -0.000068  -0.000132   0.002604   0.000013   0.000011
    33  H    0.000000   0.000000  -0.000000  -0.000035  -0.000000  -0.000000
    34  H    0.000000   0.000000   0.000000   0.000025  -0.000000  -0.000000
    35  H   -0.000000  -0.000000   0.000000   0.000022  -0.000000  -0.000000
    36  C   -0.000015  -0.000197   0.000053   0.002520   0.000032   0.000035
    37  H   -0.000000  -0.000000   0.000000   0.000052   0.000000   0.000000
    38  H    0.000000   0.000000  -0.000000   0.000027   0.000000   0.000000
    39  H    0.000000  -0.000000  -0.000000   0.000222   0.000000   0.000000
    40  H   -0.000109   0.000095   0.000007  -0.000322  -0.000000   0.000000
              19         20         21         22         23         24
     1  O   -0.001282   0.000571  -0.000046   0.000016  -0.000028   0.006021
     2  O   -0.001268   0.000396   0.000019  -0.000051  -0.000033  -0.004798
     3  O   -0.004016   0.021351   0.003444  -0.004555   0.001481  -0.011362
     4  O   -0.003639   0.014855  -0.003881   0.003286   0.001163  -0.000504
     5  Si   0.008699   0.002389  -0.002639  -0.000148  -0.002097  -0.010477
     6  Si   0.009575  -0.000307  -0.000370  -0.002903  -0.002157   0.135457
     7  Si  -0.006837  -0.010827   0.000098   0.000108  -0.000042   0.007251
     8  Si  -0.040430   0.216079  -0.038035  -0.036030  -0.031378   0.058340
     9  C   -0.000384  -0.005770   0.000206  -0.000058   0.000027  -0.002391
    10  H    0.000000  -0.000091   0.000000  -0.000000   0.000000  -0.000003
    11  H   -0.000000  -0.000154   0.000000   0.000000   0.000000  -0.000012
    12  C   -0.000977   0.004176   0.000473  -0.000007   0.000139   0.003308
    13  H    0.000006   0.000356  -0.000002  -0.000000  -0.000000   0.000014
    14  H    0.000014   0.000079  -0.000000  -0.000000   0.000000  -0.000011
    15  H    0.000173   0.000171  -0.000002   0.000000  -0.000000   0.000058
    16  C    0.407089  -0.016995  -0.000400  -0.000763  -0.007717  -0.017240
    17  H   -0.025418  -0.001628   0.000060  -0.000043   0.000010  -0.004039
    18  H   -0.025409  -0.001610  -0.000053   0.000061   0.000010   0.000999
    19  H    0.491398   0.001502   0.000011   0.000010  -0.000013  -0.001114
    20  C    0.001502   5.196120   0.408992   0.407968   0.413115   0.003633
    21  H    0.000011   0.408992   0.512311  -0.026067  -0.024011   0.000001
    22  H    0.000010   0.407968  -0.026067   0.514156  -0.024581   0.000372
    23  H   -0.000013   0.413115  -0.024011  -0.024581   0.501786   0.000176
    24  C   -0.001114   0.003633   0.000001   0.000372   0.000176   5.251778
    25  H    0.000014   0.000061  -0.000000  -0.000000   0.000000   0.412802
    26  H    0.000004   0.000397  -0.000000  -0.000002  -0.000000   0.418509
    27  H    0.000191   0.000150   0.000000  -0.000001  -0.000000   0.419159
    28  C   -0.000421  -0.005432  -0.000041   0.000208   0.000041  -0.039919
    29  H   -0.000000  -0.000048  -0.000000   0.000000   0.000000  -0.002668
    30  H    0.000000  -0.000052  -0.000000   0.000000   0.000000  -0.005569
    31  H   -0.000000  -0.000128   0.000000   0.000000  -0.000000  -0.002308
    32  C    0.000564  -0.000352  -0.000000  -0.000001  -0.000002  -0.006204
    33  H   -0.000005  -0.000002   0.000000   0.000000   0.000000   0.000104
    34  H   -0.000000  -0.000000  -0.000000  -0.000000   0.000000  -0.000036
    35  H   -0.000000  -0.000000  -0.000000  -0.000000   0.000000   0.000190
    36  C    0.000318   0.002389   0.000018   0.000019  -0.000026   0.000254
    37  H    0.000000   0.000024  -0.000000  -0.000000  -0.000000  -0.000418
    38  H    0.000000   0.000002  -0.000000  -0.000000  -0.000000  -0.000019
    39  H   -0.000000   0.000453  -0.000000  -0.000000  -0.000003  -0.000409
    40  H   -0.000000  -0.000015   0.000000   0.000000  -0.000000  -0.000013
              25         26         27         28         29         30
     1  O    0.000028   0.000019   0.000007   0.000478   0.000026   0.000024
     2  O   -0.000079   0.003447  -0.005776  -0.011432   0.002421  -0.004245
     3  O    0.002590  -0.004563  -0.001181  -0.006170  -0.000432   0.003536
     4  O    0.000024   0.000028  -0.000099   0.006009   0.000030   0.000024
     5  Si   0.001308  -0.000442  -0.001830  -0.011095   0.001584  -0.000496
     6  Si  -0.043811  -0.047001  -0.046708   0.140496  -0.041105  -0.047831
     7  Si  -0.000437   0.000307   0.003646   0.057785  -0.004934   0.001205
     8  Si  -0.004165   0.000261   0.005463   0.009694  -0.001157   0.000264
     9  C   -0.000010  -0.000003  -0.000005   0.002704  -0.000017   0.000018
    10  H   -0.000000   0.000000   0.000000   0.000010  -0.000000   0.000000
    11  H   -0.000000   0.000000   0.000000   0.000040   0.000000  -0.000000
    12  C   -0.000008   0.000015   0.000050  -0.002140  -0.000010  -0.000003
    13  H    0.000000   0.000000   0.000000  -0.000002  -0.000000   0.000000
    14  H   -0.000000   0.000000   0.000000  -0.000010   0.000000  -0.000000
    15  H    0.000000   0.000000   0.000000  -0.000008   0.000000   0.000000
    16  C    0.000097   0.000701  -0.000067   0.000376  -0.000209   0.000005
    17  H    0.000014  -0.000036  -0.000134  -0.000381   0.000000   0.000000
    18  H   -0.000000   0.000000   0.000032  -0.000010  -0.000000  -0.000000
    19  H    0.000014   0.000004   0.000191  -0.000421  -0.000000   0.000000
    20  C    0.000061   0.000397   0.000150  -0.005432  -0.000048  -0.000052
    21  H   -0.000000  -0.000000   0.000000  -0.000041  -0.000000  -0.000000
    22  H   -0.000000  -0.000002  -0.000001   0.000208   0.000000   0.000000
    23  H    0.000000  -0.000000  -0.000000   0.000041   0.000000   0.000000
    24  C    0.412802   0.418509   0.419159  -0.039919  -0.002668  -0.005569
    25  H    0.510833  -0.025192  -0.023886  -0.002713   0.000086  -0.000094
    26  H   -0.025192   0.513129  -0.025981  -0.005455  -0.000097   0.000075
    27  H   -0.023886  -0.025981   0.502308  -0.002323   0.000023   0.000006
    28  C   -0.002713  -0.005455  -0.002323   5.246642   0.411783   0.418280
    29  H    0.000086  -0.000097   0.000023   0.411783   0.509795  -0.025175
    30  H   -0.000094   0.000075   0.000006   0.418280  -0.025175   0.514133
    31  H    0.000023   0.000006  -0.000014   0.420005  -0.023722  -0.026178
[...]
 0000617,-0.00000919,0.00002640,-0.00002456,0.00004666,-0.00001806,0.00
 001107,-0.00006890,0.00014822,-0.00012173,0.00001723,0.00003566,-0.000
 03519,-0.00001996,-0.00001363,0.00001093,-0.00000211,-0.00001628,0.000
 01796,0.00000251,-0.00043791,-0.00108428,-0.00022284,0.00000393,0.0000
 4092,-0.00007124,-0.00029037,-0.00014326,0.00025242,0.00011913,0.00003
 453,-0.00006487,-0.00019800,-0.00052714,-0.00032322,-0.00006672,-0.000
 08540,-0.00011103,0.00011344,0.00005090,0.00004356,-0.00007152,0.00003
 523,0.00012510,0.00081253,0.00784464,-0.01262153,0.00140387,-0.0028319
 9,-0.00313120,-0.00062384,0.00068074,0.00140691,-0.00004426,0.00032019
 ,0.00086818,-0.00006683,0.49176038,-0.00278193,0.00369549,-0.00066423,
 -0.00054629,0.00096978,0.00294862,0.00011952,0.00034322,0.00014668,-0.
 00008907,0.00085590,0.00012824,0.00270281,-0.00187034,-0.00085184,-0.0
 0078147,-0.00144711,-0.00085547,0.00287218,0.03488077,-0.14298166,-0.0
 0017851,-0.00069092,-0.00007105,-0.00045829,0.00017078,0.00027111,-0.0
 0003668,-0.00003257,-0.00009701,0.00009162,0.00008963,-0.00008690,-0.0
 0037093,0.00020484,0.00010553,-0.00008691,0.00000566,-0.00009906,0.000
 03866,-0.00000645,0.00000243,0.00005568,-0.00002833,0.00007428,0.00002
 652,0.00007962,-0.00001275,0.00000920,0.00002237,-0.00001717,-0.000008
 40,-0.00000071,0.00000132,-0.00001347,-0.00000922,0.00005058,0.0000059
 2,0.00011056,0.00004030,-0.00000345,-0.00000435,-0.00000382,0.00000193
 ,0.00002281,0.00000686,-0.00000247,-0.00000905,0.00000772,0.00006894,0
 .00011670,0.00013348,-0.00001806,-0.00001816,-0.00002083,0.00001704,0.
 00002573,-0.00002536,-0.00002661,-0.00004733,0.00004949,0.00020176,0.0
 0020892,0.00026589,0.00005171,-0.00000475,0.00009007,0.00008389,0.0000
 0714,-0.00006450,-0.00011819,0.00006749,-0.00005218,-0.00010224,0.0054
 2893,-0.00718180,0.00091272,-0.00219173,-0.00136726,-0.00030288,0.0000
 2233,0.00018634,0.00025569,-0.00002503,0.00000624,0.00126167,0.0392129
 6,0.40273030,0.00083528,-0.00002947,0.00021019,0.00047643,0.00033509,-
 0.00013118,0.00016527,-0.00000641,0.00003766,0.00012004,0.00029098,-0.
 00005781,0.00019100,-0.00046675,0.00032576,-0.00021668,-0.00002754,-0.
 00017763,-0.00156034,-0.00098696,0.00138821,-0.00020127,-0.00020476,0.
 00001799,-0.00006545,0.00009983,0.00002014,0.00006326,0.00001098,0.000
 01117,0.00003055,-0.00007518,-0.00008563,0.00001135,0.00003403,-0.0000
 5119,-0.00000450,0.00000100,-0.00000138,0.00000703,-0.00000102,0.00001
 488,-0.00000136,0.00000119,-0.00001881,0.00002762,0.00002710,-0.000010
 14,0.00000311,0.00000867,-0.00001001,-0.00000064,-0.00000391,0.0000052
 8,-0.00000520,-0.00000369,0.00000701,0.00001954,0.00003060,0.00000451,
 0.00000113,-0.00000591,-0.00000178,0.00000084,0.00001213,0.00000164,-0
 .00000290,-0.00000852,-0.00000423,0.00003868,0.00003086,0.00003144,0.0
 0000669,-0.00000253,-0.00000352,0.00000955,0.00000680,-0.00000768,-0.0
 0001104,-0.00000485,0.00001501,0.00005388,-0.00003021,0.00004278,-0.00
 000258,-0.00001264,0.00002274,0.00004049,-0.00000506,-0.00001654,-0.00
 005517,0.00003188,0.00000789,-0.00016002,0.00014601,-0.00039425,0.0001
 3699,-0.00010941,-0.00013101,-0.00004804,0.00004469,0.00002811,0.00024
 060,-0.00002512,0.00006037,-0.26015787,0.07127315,-0.06867901,0.286135
 85,0.00130094,-0.00019401,0.00226741,-0.00139007,0.00021009,-0.0004043
 1,-0.00050981,0.00017091,-0.00009699,-0.00013738,-0.00042118,0.0000690
 2,-0.00081482,0.00073224,-0.00001908,0.00058695,-0.00040650,0.00047860
 ,0.00734385,-0.00366387,-0.00050745,0.00047963,0.00026388,-0.00000281,
 0.00006056,-0.00007167,-0.00009800,0.00006006,0.00001616,0.00002925,-0
 .00006995,-0.00000188,0.00008401,0.00014697,-0.00012298,0.00000333,0.0
 0004456,0.00000371,0.00004851,-0.00000632,0.00000497,-0.00000973,-0.00
 001282,0.00000403,-0.00000765,-0.00006402,-0.00002530,-0.00000224,-0.0
 0000249,-0.00001483,0.00001657,-0.00000402,0.00000959,-0.00001529,0.00
 001133,0.00000472,-0.00000189,-0.00005353,-0.00002706,-0.00000989,-0.0
 0000782,0.00001149,0.00000508,0.00000316,-0.00002129,-0.00000338,0.000
 00633,0.00000942,0.00000441,-0.00004530,0.00001336,-0.00009387,-0.0000
 2065,-0.00000652,0.00002424,-0.00000047,0.00000184,0.00000774,0.000016
 89,0.00001193,-0.00003556,-0.00002066,0.00020849,-0.00005605,-0.000004
 48,0.00008506,-0.00004881,-0.00018286,-0.00007321,0.00000316,0.0001301
 1,-0.00013969,-0.00006769,-0.00031781,-0.00007055,-0.00011224,-0.00001
 649,-0.00009286,-0.00003603,-0.00005788,-0.00001572,-0.00012376,-0.000
 04959,0.00021259,0.00000216,0.07625415,-0.06552583,0.02166305,-0.07931
 396,0.06817582,-0.00366979,0.00363937,-0.00484314,0.00155135,-0.001369
 27,0.00067050,0.00043917,-0.00025422,0.00004861,0.00010372,0.00077662,
 0.00013399,0.00211568,-0.00174911,-0.00091201,-0.00009893,0.00088149,0
 .00016146,-0.01970678,0.00415049,-0.00158790,-0.00060145,-0.00034663,-
 0.00006393,-0.00016369,0.00004526,0.00004443,0.00001305,0.00000736,-0.
 00002941,-0.00002988,0.00005700,0.00007515,-0.00042632,0.00023830,0.00
 006755,-0.00010723,-0.00001191,-0.00013174,0.00000838,-0.00000814,0.00
 001992,0.00004358,0.00000630,0.00005378,0.00007311,0.00004260,-0.00000
 438,0.00000395,0.00001965,-0.00001868,0.00000423,-0.00001258,0.0000159
 6,-0.00001766,-0.00000838,0.00000874,0.00006871,0.00004245,0.00000772,
 0.00000846,-0.00001724,-0.00000714,-0.00000361,0.00002366,0.00001346,-
 0.00000352,-0.00000110,0.00000065,-0.00002353,-0.00006723,-0.00002569,
 0.00002665,0.00000970,-0.00001147,-0.00001660,-0.00001734,0.00001166,0
 .00000269,0.00000674,-0.00000251,-0.00006894,-0.00008579,-0.00005041,0
 .00001095,-0.00002130,-0.00003665,0.00004234,0.00001203,0.00006731,0.0
 0004292,-0.00001825,0.00000579,0.00145280,-0.00073471,0.00090217,0.000
 20207,0.00027303,0.00034853,-0.00004058,0.00023227,0.00017971,0.000396
 52,-0.00048704,-0.00076714,-0.08235522,0.02469220,-0.06143309,0.076759
 24,-0.02299732,0.06214177,-0.00004590,-0.00009304,0.00016349,0.0009087
 1,-0.00025748,-0.00013239,0.00013633,-0.00011606,-0.00000194,-0.000028
 57,-0.00005918,0.00000314,0.00012137,0.00012816,-0.00013412,-0.0000544
 2,0.00040324,-0.00001621,-0.00228512,0.00063739,-0.00095370,-0.0000746
 8,0.00006084,-0.00001129,0.00005090,-0.00005242,0.00001866,-0.00007069
 ,0.00000015,-0.00002211,-0.00000772,0.00006681,0.00003420,0.00000089,-
 0.00001603,0.00003432,0.00000428,0.00000006,0.,-0.00000014,0.00000328,
 -0.00000829,0.00000160,-0.00000352,0.00000923,0.00000921,-0.00001327,0
 .00001185,-0.00000194,-0.00000056,0.00000028,0.00000260,-0.00000162,0.
 00000346,-0.00000115,0.00000125,-0.00000691,0.00001140,-0.00001477,0.0
 0000190,0.00000360,-0.00000138,-0.00000182,-0.00000251,0.00000089,-0.0
 0000034,-0.00000072,0.00000158,0.00000066,-0.00000363,-0.00001649,0.00
 002145,0.00000570,0.00000296,-0.00000964,-0.00000363,-0.00000230,0.000
 00345,0.00000253,-0.00000331,0.00000725,-0.00002267,-0.00007419,0.0000
 1886,0.00002007,-0.00003373,0.00000441,0.00008448,0.00003483,0.0000036
 4,-0.00004562,0.00002603,-0.00000613,-0.00006729,0.00008494,0.00016013
 ,0.00006275,0.00014140,0.00006978,0.00016341,0.00014530,0.00018430,-0.
 00001935,-0.00011198,-0.00000678,-0.14252945,-0.12753959,0.01411181,-0
 .01740528,-0.02344473,0.00384363,0.15518181,0.00123114,0.00095376,0.00
 005225,-0.00093893,-0.00097947,0.00186306,0.00045200,-0.00036569,0.000
 16394,0.00036197,0.00044962,0.00001349,-0.00037681,-0.00069435,0.00035
 235,0.00020471,0.00135400,0.00001595,-0.00479881,-0.00692116,-0.002799
 01,-0.00063797,-0.00001794,-0.00016482,-0.00006084,0.00018675,-0.00006
 994,0.00016954,0.00005173,0.00005204,-0.00001860,-0.00017769,-0.000078
 84,0.00006773,0.00003756,-0.00007636,0.00000193,0.00000107,0.00001067,
 0.00001525,0.00000747,0.00002763,-0.00001372,0.00000130,-0.00004176,0.
 00007956,0.00000894,0.00002450,0.00000030,0.00001219,-0.00001633,0.000
 00881,-0.00001444,0.00002239,-0.00001296,-0.00000180,-0.00000976,0.000
 07439,-0.00000021,0.00000650,0.00001400,-0.00002242,-0.00000317,-0.000
 00325,0.00001551,0.00000629,-0.00001417,0.00000583,0.00000306,-0.00004
 295,-0.00019732,0.00000190,0.00000894,0.00001124,-0.00001541,-0.000050
 65,-0.00002775,0.00003743,0.00000884,0.00000908,0.00000334,0.00001150,
 -0.00014600,-0.00010744,-0.00006720,-0.00002723,-0.00000056,-0.0000186
 1,-0.00000340,0.00001595,0.00001060,0.00006269,0.00012356,0.00025314,0
 .00008193,0.00013287,0.00009905,0.00003034,0.00004548,0.00003025,0.000
 29951,0.00005526,0.00007552,-0.00002601,-0.00011857,-0.13065597,-0.205
 69572,0.01606665,0.00683032,0.00797443,-0.00108219,0.14153698,0.221067
 03,-0.00054449,-0.00206464,0.00044494,0.00217520,0.00545417,-0.0041275
 2,-0.00050280,0.00052982,0.00006267,-0.00020039,-0.00045586,-0.0000362
 2,-0.00047263,0.00076869,0.00011069,-0.00047867,-0.00244761,-0.0012971
 6,0.01310657,0.01477873,0.00239256,0.00064077,0.00007567,0.00009403,0.
 00012547,-0.00002714,-0.00002812,-0.00006126,-0.00001560,0.00005477,-0
 .00002876,-0.00003843,-0.00000096,0.00006980,-0.00004196,-0.00001233,0
 .00002193,-0.00000579,0.00001772,-0.00002354,-0.00000519,-0.00001851,-
 0.00000618,0.00000356,-0.00000465,-0.00007507,-0.00000865,-0.00002081,
 -0.00000046,-0.00001360,0.00001473,-0.00000881,0.00001431,-0.00001855,
 0.00001589,0.00000270,0.00001143,-0.00007412,-0.00000834,-0.00001129,-
 0.00001220,0.00001903,0.00001179,0.00000406,-0.00001759,-0.00000750,0.
 00000206,0.00000194,0.00000204,0.00018735,0.00042673,0.00015842,-0.000
 00492,-0.00001182,0.00001503,0.00012123,0.00006040,-0.00010127,-0.0000
 5081,-0.00002458,0.00004488,0.00009191,0.00010131,0.00007659,-0.000003
 94,-0.00001561,0.00010806,0.00001078,0.00000903,-0.00003097,-0.0000371
 0,0.00007115,0.00008682,-0.00096856,-0.00151254,0.00065851,-0.00038542
 ,0.00012327,0.00029991,0.00018713,-0.00052779,-0.00077670,-0.00014457,
 0.00017761,0.00016093,0.02325238,0.02737127,-0.03888688,-0.00598435,-0
 .00813566,-0.00075848,-0.01598148,-0.01818387,0.04020422,-0.00014126,-
 0.00002818,0.00030663,-0.00033296,-0.00085849,-0.00036297,-0.00037910,
 0.00009864,-0.00021941,-0.00026361,-0.00032775,0.00008160,0.00028058,0
 .00032616,-0.00052899,0.00033554,0.00003459,0.00091829,-0.00203342,0.0
 0049740,-0.00056199,0.00044976,0.00014355,0.00007425,-0.00003945,-0.00
 013450,-0.00004347,-0.00001113,-0.00000434,-0.00000549,-0.00013970,0.0
 0013928,0.00012752,-0.00005088,-0.00004616,0.00009088,0.00000230,0.000
 00166,-0.00000954,-0.00000423,-0.00000035,-0.00001356,0.00001137,0.000
 00297,0.00003438,-0.00006039,-0.00001816,-0.00001094,-0.00000206,-0.00
 001088,0.00001579,-0.00000391,0.00000853,-0.00001687,0.00000731,0.0000
 0169,-0.00000068,-0.00004895,-0.00001677,-0.00000920,-0.00000845,0.000
 01412,0.00000020,0.00000186,-0.00001676,-0.00000053,0.00001317,0.00000
 385,0.00000039,-0.00007258,-0.00002197,-0.00014772,-0.00000178,-0.0000
 0087,0.00001412,-0.00000918,-0.00000956,0.00001985,0.00002738,0.000014
 00,-0.00004601,-0.00015083,0.00016465,0.00002422,0.00010290,0.00006638
 ,-0.00010102,-0.00002655,-0.00001330,0.00002371,0.00005686,-0.00023278
 ,-0.00022597,0.00039559,-0.00010219,0.00000183,0.00028184,0.00011100,0
 .00003589,0.00000491,0.00020863,0.00020124,0.00019199,-0.00017057,-0.0
 0025756,-0.06581772,0.05720618,0.05182864,-0.00867948,0.02004644,0.020
 13933,0.00588595,-0.01380498,-0.01397527,0.07016020,-0.00096677,0.0002
 6973,-0.00097953,0.00071719,0.00055898,-0.00096516,-0.00009505,0.00015
 071,-0.00009263,-0.00016433,-0.00001690,-0.00001031,0.00069166,-0.0001
 0970,-0.00030377,-0.00021939,-0.00049520,0.00003244,-0.00272180,0.0043
 5814,0.00558329,0.00018718,-0.00013075,0.00010791,-0.00002549,-0.00016
 044,0.00002511,-0.00004283,-0.00000780,-0.00004995,0.00001670,0.000145
 08,0.00008266,-0.00011833,0.00001604,0.00004909,-0.00002027,0.00000355
 ,-0.00002962,0.00000018,-0.00000362,-0.00000332,0.00001434,0.00000468,
 0.00003086,-0.00002360,0.00001381,-0.00001662,0.00000170,-0.00000080,0
 .00000215,-0.00000391,0.00000378,-0.00000890,0.00000153,-0.00000019,0.
 00000756,-0.00002485,0.00002265,0.00000078,-0.00000603,0.00000949,-0.0
 0000135,0.00000075,0.00000081,-0.00000113,0.00000811,-0.00000967,-0.00
 000363,0.00003580,0.00007441,-0.00000512,0.00000002,-0.00000407,0.0000
 0526,0.00001808,0.00001340,-0.00001478,-0.00000665,-0.00000016,0.00000
 212,0.00002105,-0.00004165,0.00005613,0.00001678,0.00000439,0.00001214
 ,0.00003729,0.00001658,-0.00002959,-0.00009935,-0.00002835,-0.00005146
 ,0.00002189,-0.00047956,0.00188353,-0.00010965,0.00047388,0.00047309,0
 .00008818,0.00005828,0.00007880,-0.00000677,-0.00011062,-0.00008659,0.
 05531964,-0.16726145,-0.11784005,0.00208211,-0.00726626,-0.00585695,0.
 00860932,-0.01737310,-0.01640366,-0.06326707,0.18731123,-0.00075157,0.
 00153662,0.00224549,-0.00084925,0.00140684,0.00214772,-0.00009148,-0.0
 0015915,0.00025810,0.00002919,-0.00017993,0.00030880,-0.00049683,0.000
 14044,-0.00092615,0.00061194,0.00045046,-0.00059772,0.00726114,-0.0191
 4231,-0.01120169,-0.00003269,0.00043802,-0.00032152,0.00011164,-0.0000
 9043,-0.00010587,0.00004026,0.00002209,0.00000883,-0.00015829,0.000061
 87,0.00027928,0.00001432,-0.00002665,0.00010549,0.00000727,0.00000310,
 0.00000997,0.00002013,0.00001295,-0.00000651,0.00000682,-0.00001835,0.
 00003076,0.00000220,-0.00005698,0.00005560,-0.00000679,-0.00000625,0.0
 0001008,0.00000550,0.00000013,0.00000767,-0.00000034,0.00000626,-0.000
 00505,0.00001046,-0.00006036,0.00001240,0.00000842,-0.00000782,0.00000
 145,-0.00000219,-0.00001547,-0.00000017,-0.00001017,0.00002928,0.00002
 095,-0.00003597,-0.00003815,0.00006845,-0.00002284,-0.00000082,-0.0000
 0846,-0.00001074,-0.00000366,0.00001139,0.00000381,-0.00001852,0.00001
 959,-0.00004738,-0.00009699,-0.00011715,-0.00008591,-0.00002864,0.0000
 3874,-0.00005209,-0.00000772,0.00000098,0.00003269,0.00006587,0.000256
 96,-0.00029914,0.00283547,-0.00423092,0.00057250,-0.00122326,-0.001104
 42,-0.00025157,0.00013683,0.00033628,0.00008993,0.00018794,0.00031803,
 0.05641060,-0.13232115,-0.15255365,-0.00320986,0.00817421,0.00560341,-
 0.00143627,0.00372483,0.00114399,-0.05748340,0.13424816,0.15779234,-0.
 00297697,0.00052163,0.00245203,-0.00050149,-0.00058645,-0.00005931,0.0
 0046591,-0.00029696,0.00007875,0.00147812,-0.00111993,-0.00014318,-0.0
 0959224,0.00875259,-0.00331674,-0.00003048,0.00072953,0.00003235,0.001
 84385,-0.00026923,0.00046140,-0.00065854,-0.00005029,0.00008397,-0.218
 95722,0.13085864,0.01118178,0.00881047,-0.00690930,-0.00058607,-0.0134
 0893,0.00872925,0.00275251,0.00046670,-0.00046013,-0.00004860,0.000358
 29,-0.00007044,0.00034053,-0.00002999,-0.00005868,-0.00019333,0.000023
 33,-0.00018302,-0.00007832,0.00004853,0.00000370,-0.00002102,0.0000030
 7,0.00000716,-0.00000968,0.00000392,-0.00001291,0.00002403,0.00000144,
 -0.00000140,-0.00002776,0.00008456,0.00002257,-0.00002343,0.00001450,-
 0.00006526,0.00002236,0.00002764,0.00002012,-0.00001471,-0.00004550,-0
 .00002172,-0.00003781,0.00000348,-0.00008394,0.00000313,0.00001723,0.0
 0000473,-0.00001031,-0.00002010,-0.00001447,0.00001246,-0.00000001,0.0
 0000935,0.00000034,0.00000134,-0.00009008,-0.00001905,-0.00002118,-0.0
 0001371,-0.00001889,0.00001276,0.00000078,0.00001407,0.00000358,0.0000
 1690,0.00001850,-0.00024175,0.00008830,-0.00003683,0.00001150,-0.00002
 031,-0.00000588,0.00000935,-0.00000480,-0.00001578,-0.00003559,0.00007
 226,0.00004279,-0.00021516,-0.00000406,-0.00011305,-0.00003737,0.00005
 599,-0.00001879,0.00001286,-0.00003006,0.00001327,0.00006810,0.0000326
 4,0.00009594,0.23300195,-0.00164592,0.00099491,0.00129294,-0.00003053,
 -0.00003176,-0.00003463,0.00015303,-0.00005340,0.00002297,0.00070130,-
 0.00007550,-0.00014728,-0.00467094,0.00141093,-0.00042738,-0.00007263,
 0.00008778,-0.00000502,0.00022822,-0.00016320,0.00032144,-0.00019617,-
 0.00004599,0.00001316,0.12261956,-0.12907551,-0.01090393,0.02557271,-0
 .01701196,-0.00232134,-0.00345035,0.00118192,0.00051026,0.00044353,-0.
 00022725,-0.00034168,-0.00001739,0.00019391,0.00010041,0.00006657,-0.0
 0004622,-0.00003652,-0.00013166,-0.00000163,-0.00020271,0.00003691,0.0
 0004040,-0.00002262,0.00000291,0.00000992,-0.00001515,-0.00000357,-0.0
 0000426,0.00000880,-0.00000079,-0.00000367,-0.00000198,0.00002710,0.00
 003630,-0.00001160,0.00000237,-0.00003126,0.00001059,0.00001466,0.0000
 1084,-0.00000542,-0.00001704,-0.00001566,-0.00001612,0.00001468,-0.000
 00868,-0.00000278,0.00000460,-0.00000068,-0.00000209,-0.00000251,0.000
 00030,0.00000097,-0.00000254,0.00000124,0.00000190,0.00000944,-0.00000
 881,0.00000407,-0.00000267,0.00000115,-0.00000279,0.00000164,-0.000002
 47,0.00000302,-0.00000025,-0.00000015,-0.00000171,-0.00007890,0.000038
 81,-0.00005318,0.00000978,-0.00000988,-0.00001590,-0.00000591,0.000016
 70,0.00000949,-0.00000678,0.00003159,0.00001536,-0.00000607,-0.0000378
 1,-0.00004521,0.00002646,0.00003647,-0.00000981,-0.00002973,0.00006972
 ,-0.00002346,-0.00000412,-0.00000932,0.00002122,-0.13955897,0.14270219
 ,0.00563663,-0.00056996,-0.00241209,0.00052214,0.00043203,0.00020848,-
 0.00035559,0.00014448,-0.00007099,-0.00164994,0.00006453,0.00013551,0.
 01172002,-0.01189224,0.00124487,0.00005667,-0.00052772,-0.00006532,-0.
 00185454,0.00056408,-0.00130226,0.00045927,0.00037670,0.00014560,0.020
 89322,-0.01840327,-0.03912119,0.00143214,-0.00035701,-0.00198069,-0.02
 265594,0.01701536,0.00195570,-0.00156692,0.00064671,0.00045403,-0.0002
 5929,0.00009075,-0.00086124,0.00015314,0.00006756,0.00019651,-0.000001
 77,0.00026603,0.00037859,-0.00005207,-0.00008233,-0.00000830,-0.000010
 32,-0.00001357,0.00002330,-0.00000291,0.00002336,-0.00001683,0.0000116
 9,0.00000320,-0.00000086,-0.00001047,-0.00004814,-0.00000727,-0.000009
 02,0.00002829,0.00001413,-0.00000455,-0.00001181,-0.00001404,-0.000012
 69,0.00000066,-0.00001110,-0.00000218,0.00006070,0.00000403,-0.0000130
 5,-0.00000288,0.00000677,0.00001352,0.00000925,-0.00000947,0.00000007,
 -0.00000703,-0.00000019,0.00000023,0.00006338,0.00000590,0.00000672,0.
 00000383,0.00002075,-0.00000890,-0.00000086,-0.00001178,0.00000124,-0.
 00000003,0.00000244,0.00027393,-0.00016450,0.00015511,-0.00001889,0.00
 004478,0.00003838,-0.00000637,-0.00000040,0.00000568,0.00004501,-0.000
 08960,-0.00006454,0.00003607,-0.00007269,0.00008103,-0.00003603,0.0000
 0495,0.00010151,0.00001951,-0.00005334,-0.00003684,0.00008184,0.000073
 05,0.00008652,-0.01283164,0.01231371,0.04073016\\0.00000047,0.00000172
 ,-0.00000435,0.00000071,-0.00000129,0.00000359,0.00000205,0.00000236,-
 0.00000239,0.00000114,-0.00000043,0.00000633,0.00000252,-0.00000095,0.
 00000039,0.00000367,0.00000205,-0.00000039,-0.00000429,-0.00000186,0.0
 0000197,-0.00000409,-0.00000224,-0.00000376,-0.00000261,0.00000035,0.0
 0000136,0.00000052,0.00000268,0.00000027,-0.00000056,0.00000076,-0.000
 00264,0.00000013,-0.00000010,0.00000064,0.00000031,-0.00000027,-0.0000
 0023,0.00000014,-0.00000037,0.00000023,0.00000035,0.00000003,0.0000000
 3,-0.00000029,-0.00000061,-0.00000103,-0.00000058,-0.00000078,-0.00000
 096,-0.00000062,-0.00000098,-0.00000078,0.00000163,0.00000017,-0.00000
 052,-0.00000071,-0.00000001,-0.00000095,0.00000022,0.00000019,-0.00000
 124,0.00000021,-0.00000009,-0.00000138,0.00000004,0.00000054,-0.000000
 92,0.00000029,0.00000020,0.00000006,0.00000007,-0.00000041,0.00000032,
 0.00000048,-0.00000030,-0.00000035,0.00000052,-0.00000115,0.00000057,-
 0.00000063,0.00000007,0.00000008,-0.00000022,0.00000047,-0.00000036,-0
 .00000022,0.00000025,0.00000009,0.00000050,0.00000129,-0.00000013,-0.0
 0000061,-0.00000027,0.00000072,0.00000007,-0.00000074,0.00000092,-0.00
 000010,-0.00000028,0.00000112,-0.00000018,-0.00000021,0.00000130,-0.00
 000075,0.00000013,0.00000111,-0.00000074,-0.00000015,0.00000062,-0.000
 00007,0.00000051,0.00000064,-0.00000057,0.00000059,0.00000028,0.000001
 79,-0.00000088,-0.00000026\\\@


 ALL SCIENCE IS EITHER PHYSICS, OR STAMP COLLECTING.
   --ERNEST RUTHERFORD, 1871-1937.
 Job cpu time:       0 days 13 hours 11 minutes 19.0 seconds.
 Elapsed time:       0 days  1 hours  6 minutes 16.1 seconds.
 File lengths (MBytes):  RWF=   2080 Int=      0 D2E=      0 Chk=     48 Scr=     16
 Normal termination of Gaussian 16 at Sun May 30 18:44:03 2021.
