 Entering Gaussian System, Link 0=g16
 Input=D4Radical.gjf
 Output=D4Radical.log
 Initial command:
 /curc/sw/gaussian/16/g16/l1.exe "/scratch/summit/mial5369/7714438/Gau-81059.inp" -scrdir="/scratch/summit/mial5369/7714438/"
 Default is to use a total of  12 processors:
                               12 via shared-memory
                                1 via Linda
 Entering Link 1 = /curc/sw/gaussian/16/g16/l1.exe PID=     81060.
  
 Copyright (c) 1988,1990,1992,1993,1995,1998,2003,2009,2016,
            Gaussian, Inc.  All Rights Reserved.
  
 This is part of the Gaussian(R) 16 program.  It is based on
 the Gaussian(R) 09 system (copyright 2009, Gaussian, Inc.),
 the Gaussian(R) 03 system (copyright 2003, Gaussian, Inc.),
 the Gaussian(R) 98 system (copyright 1998, Gaussian, Inc.),
 the Gaussian(R) 94 system (copyright 1995, Gaussian, Inc.),
 the Gaussian 92(TM) system (copyright 1992, Gaussian, Inc.),
 the Gaussian 90(TM) system (copyright 1990, Gaussian, Inc.),
 the Gaussian 88(TM) system (copyright 1988, Gaussian, Inc.),
 the Gaussian 86(TM) system (copyright 1986, Carnegie Mellon
 University), and the Gaussian 82(TM) system (copyright 1983,
 Carnegie Mellon University). Gaussian is a federally registered
 trademark of Gaussian, Inc.
  
 This software contains proprietary and confidential information,
 including trade secrets, belonging to Gaussian, Inc.
  
 This software is provided under written license and may be
 used, copied, transmitted, or stored only in accord with that
 written license.
  
 The following legend is applicable only to US Government
 contracts under FAR:
  
                    RESTRICTED RIGHTS LEGEND
  
 Use, reproduction and disclosure by the US Government is
 subject to restrictions as set forth in subparagraphs (a)
 and (c) of the Commercial Computer Software - Restricted
 Rights clause in FAR 52.227-19.
  
 Gaussian, Inc.
 340 Quinnipiac St., Bldg. 40, Wallingford CT 06492
  
  
 ---------------------------------------------------------------
 Warning -- This program may not be used in any manner that
 competes with the business of Gaussian, Inc. or will provide
 assistance to any competitor of Gaussian, Inc.  The licensee
 of this program is prohibited from giving any competitor of
 Gaussian, Inc. access to this program.  By using this program,
 the user acknowledges that Gaussian, Inc. is engaged in the
 business of creating and licensing software in the field of
 computational chemistry and represents and warrants to the
 licensee that it is not a competitor of Gaussian, Inc. and that
 it will not use this program in any manner prohibited above.
 ---------------------------------------------------------------
  

 Cite this work as:
 Gaussian 16, Revision A.03,
 M. J. Frisch, G. W. Trucks, H. B. Schlegel, G. E. Scuseria, 
 M. A. Robb, J. R. Cheeseman, G. Scalmani, V. Barone, 
 G. A. Petersson, H. Nakatsuji, X. Li, M. Caricato, A. V. Marenich, 
 J. Bloino, B. G. Janesko, R. Gomperts, B. Mennucci, H. P. Hratchian, 
 J. V. Ortiz, A. F. Izmaylov, J. L. Sonnenberg, D. Williams-Young, 
 F. Ding, F. Lipparini, F. Egidi, J. Goings, B. Peng, A. Petrone, 
 T. Henderson, D. Ranasinghe, V. G. Zakrzewski, J. Gao, N. Rega, 
 G. Zheng, W. Liang, M. Hada, M. Ehara, K. Toyota, R. Fukuda, 
 J. Hasegawa, M. Ishida, T. Nakajima, Y. Honda, O. Kitao, H. Nakai, 
 T. Vreven, K. Throssell, J. A. Montgomery, Jr., J. E. Peralta, 
 F. Ogliaro, M. J. Bearpark, J. J. Heyd, E. N. Brothers, K. N. Kudin, 
 V. N. Staroverov, T. A. Keith, R. Kobayashi, J. Normand, 
 K. Raghavachari, A. P. Rendell, J. C. Burant, S. S. Iyengar, 
 J. Tomasi, M. Cossi, J. M. Millam, M. Klene, C. Adamo, R. Cammi, 
 J. W. Ochterski, R. L. Martin, K. Morokuma, O. Farkas, 
 J. B. Foresman, and D. J. Fox, Gaussian, Inc., Wallingford CT, 2016.
 
 ******************************************
 Gaussian 16:  ES64L-G16RevA.03 25-Dec-2016
                29-Jun-2021 
 ******************************************
 %nprocshared=12
 Will use up to   12 processors via shared memory.
 %mem=50GB
 ---------------------------------------------------------------------
 # opt=(calcfc,noeigentest) freq b3lyp/6-31+g(2df,p) geom=connectivity
 ---------------------------------------------------------------------
 1/10=4,11=1,18=20,19=15,26=3,38=1,57=2/1,3;
 2/9=110,12=2,17=6,18=5,40=1/2;
 3/5=1,6=6,7=114,11=2,25=1,30=1,71=2,74=-5,140=1/1,2,3;
 4//1;
 5/5=2,38=5/2;
 8/6=4,10=90,11=11/1;
 11/6=1,8=1,9=11,15=111,16=1/1,2,10;
 10/6=1,13=1/2;
 6/7=2,8=2,9=2,10=2,28=1/1;
 7/10=1,18=20,25=1/1,2,3,16;
 1/10=4,11=1,18=20,19=15,26=3/3(2);
 2/9=110/2;
 99//99;
 2/9=110/2;
 3/5=1,6=6,7=114,11=2,25=1,30=1,71=1,74=-5/1,2,3;
 4/5=5,16=3,69=1/1;
 5/5=2,38=5/2;
 7//1,2,3,16;
 1/11=1,18=20,19=15,26=3/3(-5);
 2/9=110/2;
 6/7=2,8=2,9=2,10=2,19=2,28=1/1;
 99/9=1/99;
 --
 D4
 --
 Symbolic Z-matrix:
 Charge =  0 Multiplicity = 2
 O                    -1.34453   1.29077  -0.29555 
 O                     1.33912   1.29668  -0.29788 
 O                     1.34369  -1.32359   0.29866 
 O                    -1.34     -1.33138   0.2933 
 Si                   -2.28187  -0.00894   0.05694 
 Si                    2.28121   0.00108   0.0573 
 Si                   -0.00464   2.22359  -0.13543 
 Si                    0.00498  -2.23088   0.02116 
 C                    -3.23005   0.30654   1.63568 
 H                    -3.8731    1.18884   1.54239 
 H                    -2.54705   0.47333   2.47584 
 C                    -3.41972  -0.30206  -1.39535 
 H                    -4.06418  -1.17146  -1.22362 
 H                    -4.06382   0.56721  -1.56938 
 H                    -2.84604  -0.48224  -2.31107 
 C                     0.00989  -2.8284   -1.75233 
 H                    -0.87365  -3.44143  -1.96321 
 H                     0.00812  -1.98618  -2.45356 
 C                     0.00679  -3.64246   1.24077 
 H                    -0.87802  -4.27595   1.11352 
 H                     0.89545  -4.27114   1.11645 
 H                     0.00407  -3.26117   2.26771 
 C                     3.41851  -0.29206  -1.39544 
 H                     4.05942   0.57896  -1.57245 
 H                     4.06615  -1.15876  -1.22207 
 H                     2.84453  -0.47664  -2.3101 
 C                     3.22997   0.32377   1.63421 
 H                     3.86871  -0.53007   1.88672 
 H                     3.86997   1.20797   1.53802 
 H                     2.54726   0.4904    2.47464 
 C                    -0.00841   3.4768   -1.51747 
 H                    -0.00805   2.97427  -2.49086 
 H                    -0.89647   4.11661  -1.46831 
 H                     0.87695   4.12043  -1.46965 
 C                    -0.0051    3.03428   1.55107 
 H                     0.87968   3.66727   1.68298 
 H                    -0.89225   3.66369   1.68419 
 H                    -0.00307   2.28546   2.35109 
 H                    -3.86569  -0.55006   1.88667 
 

 GradGradGradGradGradGradGradGradGradGradGradGradGradGradGradGradGradGrad
 Berny optimization.
 Initialization pass.
                           ----------------------------
                           !    Initial Parameters    !
                           ! (Angstroms and Degrees)  !
 --------------------------                            --------------------------
 ! Name  Definition              Value          Derivative Info.                !
 --------------------------------------------------------------------------------
 ! R1    R(1,5)                  1.6408         calculate D2E/DX2 analytically  !
 ! R2    R(1,7)                  1.6405         calculate D2E/DX2 analytically  !
 ! R3    R(2,6)                  1.6408         calculate D2E/DX2 analytically  !
 ! R4    R(2,7)                  1.6405         calculate D2E/DX2 analytically  !
 ! R5    R(3,6)                  1.6407         calculate D2E/DX2 analytically  !
 ! R6    R(3,8)                  1.6408         calculate D2E/DX2 analytically  !
 ! R7    R(4,5)                  1.6407         calculate D2E/DX2 analytically  !
 ! R8    R(4,8)                  1.6408         calculate D2E/DX2 analytically  !
 ! R9    R(5,9)                  1.8684         calculate D2E/DX2 analytically  !
 ! R10   R(5,12)                 1.8681         calculate D2E/DX2 analytically  !
 ! R11   R(6,23)                 1.8681         calculate D2E/DX2 analytically  !
 ! R12   R(6,27)                 1.8684         calculate D2E/DX2 analytically  !
 ! R13   R(7,31)                 1.8656         calculate D2E/DX2 analytically  !
 ! R14   R(7,35)                 1.8712         calculate D2E/DX2 analytically  !
 ! R15   R(8,16)                 1.8715         calculate D2E/DX2 analytically  !
 ! R16   R(8,19)                 1.8655         calculate D2E/DX2 analytically  !
 ! R17   R(9,10)                 1.0957         calculate D2E/DX2 analytically  !
 ! R18   R(9,11)                 1.0955         calculate D2E/DX2 analytically  !
 ! R19   R(9,39)                 1.0958         calculate D2E/DX2 analytically  !
 ! R20   R(12,13)                1.0958         calculate D2E/DX2 analytically  !
 ! R21   R(12,14)                1.0958         calculate D2E/DX2 analytically  !
 ! R22   R(12,15)                1.0955         calculate D2E/DX2 analytically  !
 ! R23   R(16,17)                1.0959         calculate D2E/DX2 analytically  !
 ! R24   R(16,18)                1.0959         calculate D2E/DX2 analytically  !
 ! R25   R(19,20)                1.0956         calculate D2E/DX2 analytically  !
 ! R26   R(19,21)                1.0956         calculate D2E/DX2 analytically  !
 ! R27   R(19,22)                1.0954         calculate D2E/DX2 analytically  !
 ! R28   R(23,24)                1.0958         calculate D2E/DX2 analytically  !
 ! R29   R(23,25)                1.0958         calculate D2E/DX2 analytically  !
 ! R30   R(23,26)                1.0955         calculate D2E/DX2 analytically  !
 ! R31   R(27,28)                1.0958         calculate D2E/DX2 analytically  !
 ! R32   R(27,29)                1.0957         calculate D2E/DX2 analytically  !
 ! R33   R(27,30)                1.0955         calculate D2E/DX2 analytically  !
 ! R34   R(31,32)                1.0955         calculate D2E/DX2 analytically  !
 ! R35   R(31,33)                1.0956         calculate D2E/DX2 analytically  !
 ! R36   R(31,34)                1.0956         calculate D2E/DX2 analytically  !
 ! R37   R(35,36)                1.0959         calculate D2E/DX2 analytically  !
 ! R38   R(35,37)                1.0959         calculate D2E/DX2 analytically  !
 ! R39   R(35,38)                1.0958         calculate D2E/DX2 analytically  !
 ! A1    A(5,1,7)              153.6477         calculate D2E/DX2 analytically  !
 ! A2    A(6,2,7)              153.51           calculate D2E/DX2 analytically  !
 ! A3    A(6,3,8)              152.5918         calculate D2E/DX2 analytically  !
 ! A4    A(5,4,8)              152.6937         calculate D2E/DX2 analytically  !
 ! A5    A(1,5,4)              109.9669         calculate D2E/DX2 analytically  !
 ! A6    A(1,5,9)              109.7357         calculate D2E/DX2 analytically  !
 ! A7    A(1,5,12)             107.7732         calculate D2E/DX2 analytically  !
 ! A8    A(4,5,9)              107.8002         calculate D2E/DX2 analytically  !
 ! A9    A(4,5,12)             109.5844         calculate D2E/DX2 analytically  !
 ! A10   A(9,5,12)             111.9796         calculate D2E/DX2 analytically  !
 ! A11   A(2,6,3)              109.9544         calculate D2E/DX2 analytically  !
 ! A12   A(2,6,23)             107.7653         calculate D2E/DX2 analytically  !
 ! A13   A(2,6,27)             109.7473         calculate D2E/DX2 analytically  !
 ! A14   A(3,6,23)             109.6076         calculate D2E/DX2 analytically  !
 ! A15   A(3,6,27)             107.7846         calculate D2E/DX2 analytically  !
 ! A16   A(23,6,27)            111.9806         calculate D2E/DX2 analytically  !
 ! A17   A(1,7,2)              109.7602         calculate D2E/DX2 analytically  !
 ! A18   A(1,7,31)             107.9395         calculate D2E/DX2 analytically  !
 ! A19   A(1,7,35)             109.5191         calculate D2E/DX2 analytically  !
 ! A20   A(2,7,31)             107.9293         calculate D2E/DX2 analytically  !
 ! A21   A(2,7,35)             109.5263         calculate D2E/DX2 analytically  !
 ! A22   A(31,7,35)            112.1256         calculate D2E/DX2 analytically  !
 ! A23   A(3,8,4)              109.7312         calculate D2E/DX2 analytically  !
 ! A24   A(3,8,16)             109.5528         calculate D2E/DX2 analytically  !
 ! A25   A(3,8,19)             107.8809         calculate D2E/DX2 analytically  !
 ! A26   A(4,8,16)             109.5342         calculate D2E/DX2 analytically  !
 ! A27   A(4,8,19)             107.8898         calculate D2E/DX2 analytically  !
 ! A28   A(16,8,19)            112.2073         calculate D2E/DX2 analytically  !
 ! A29   A(5,9,10)             111.2133         calculate D2E/DX2 analytically  !
 ! A30   A(5,9,11)             110.9355         calculate D2E/DX2 analytically  !
 ! A31   A(5,9,39)             110.8492         calculate D2E/DX2 analytically  !
 ! A32   A(10,9,11)            107.974          calculate D2E/DX2 analytically  !
 ! A33   A(10,9,39)            107.9697         calculate D2E/DX2 analytically  !
 ! A34   A(11,9,39)            107.7578         calculate D2E/DX2 analytically  !
 ! A35   A(5,12,13)            111.1549         calculate D2E/DX2 analytically  !
 ! A36   A(5,12,14)            110.9174         calculate D2E/DX2 analytically  !
 ! A37   A(5,12,15)            110.8964         calculate D2E/DX2 analytically  !
 ! A38   A(13,12,14)           107.9745         calculate D2E/DX2 analytically  !
 ! A39   A(13,12,15)           107.9686         calculate D2E/DX2 analytically  !
 ! A40   A(14,12,15)           107.7896         calculate D2E/DX2 analytically  !
 ! A41   A(8,16,17)            111.0297         calculate D2E/DX2 analytically  !
 ! A42   A(8,16,18)            111.1605         calculate D2E/DX2 analytically  !
 ! A43   A(17,16,18)           107.787          calculate D2E/DX2 analytically  !
 ! A44   A(8,19,20)            111.1489         calculate D2E/DX2 analytically  !
 ! A45   A(8,19,21)            111.1493         calculate D2E/DX2 analytically  !
 ! A46   A(8,19,22)            110.4577         calculate D2E/DX2 analytically  !
 ! A47   A(20,19,21)           108.0631         calculate D2E/DX2 analytically  !
 ! A48   A(20,19,22)           107.9465         calculate D2E/DX2 analytically  !
 ! A49   A(21,19,22)           107.9459         calculate D2E/DX2 analytically  !
 ! A50   A(6,23,24)            110.9138         calculate D2E/DX2 analytically  !
 ! A51   A(6,23,25)            111.1558         calculate D2E/DX2 analytically  !
 ! A52   A(6,23,26)            110.9006         calculate D2E/DX2 analytically  !
 ! A53   A(24,23,25)           107.9737         calculate D2E/DX2 analytically  !
 ! A54   A(24,23,26)           107.7881         calculate D2E/DX2 analytically  !
 ! A55   A(25,23,26)           107.9693         calculate D2E/DX2 analytically  !
 ! A56   A(6,27,28)            110.8486         calculate D2E/DX2 analytically  !
 ! A57   A(6,27,29)            111.2145         calculate D2E/DX2 analytically  !
 ! A58   A(6,27,30)            110.9337         calculate D2E/DX2 analytically  !
 ! A59   A(28,27,29)           107.9701         calculate D2E/DX2 analytically  !
 ! A60   A(28,27,30)           107.7574         calculate D2E/DX2 analytically  !
 ! A61   A(29,27,30)           107.9752         calculate D2E/DX2 analytically  !
 ! A62   A(7,31,32)            110.493          calculate D2E/DX2 analytically  !
 ! A63   A(7,31,33)            111.141          calculate D2E/DX2 analytically  !
 ! A64   A(7,31,34)            111.1395         calculate D2E/DX2 analytically  !
 ! A65   A(32,31,33)           107.9401         calculate D2E/DX2 analytically  !
 ! A66   A(32,31,34)           107.9393         calculate D2E/DX2 analytically  !
 ! A67   A(33,31,34)           108.0578         calculate D2E/DX2 analytically  !
 ! A68   A(7,35,36)            111.0101         calculate D2E/DX2 analytically  !
 ! A69   A(7,35,37)            111.009          calculate D2E/DX2 analytically  !
 ! A70   A(7,35,38)            111.2198         calculate D2E/DX2 analytically  !
 ! A71   A(36,35,37)           107.8925         calculate D2E/DX2 analytically  !
 ! A72   A(36,35,38)           107.7787         calculate D2E/DX2 analytically  !
 ! A73   A(37,35,38)           107.7769         calculate D2E/DX2 analytically  !
 ! D1    D(7,1,5,4)            -37.5865         calculate D2E/DX2 analytically  !
 ! D2    D(7,1,5,9)             80.8307         calculate D2E/DX2 analytically  !
 ! D3    D(7,1,5,12)          -156.9907         calculate D2E/DX2 analytically  !
 ! D4    D(5,1,7,2)             51.2814         calculate D2E/DX2 analytically  !
 ! D5    D(5,1,7,31)           168.6765         calculate D2E/DX2 analytically  !
 ! D6    D(5,1,7,35)           -68.9937         calculate D2E/DX2 analytically  !
 ! D7    D(7,2,6,3)             37.667          calculate D2E/DX2 analytically  !
 ! D8    D(7,2,6,23)           157.0873         calculate D2E/DX2 analytically  !
 ! D9    D(7,2,6,27)           -80.7307         calculate D2E/DX2 analytically  !
 ! D10   D(6,2,7,1)            -51.4689         calculate D2E/DX2 analytically  !
 ! D11   D(6,2,7,31)          -168.8703         calculate D2E/DX2 analytically  !
 ! D12   D(6,2,7,35)            68.802          calculate D2E/DX2 analytically  !
 ! D13   D(8,3,6,2)             30.8656         calculate D2E/DX2 analytically  !
 ! D14   D(8,3,6,23)           -87.4238         calculate D2E/DX2 analytically  !
 ! D15   D(8,3,6,27)           150.4664         calculate D2E/DX2 analytically  !
 ! D16   D(6,3,8,4)            -54.8381         calculate D2E/DX2 analytically  !
 ! D17   D(6,3,8,16)            65.45           calculate D2E/DX2 analytically  !
 ! D18   D(6,3,8,19)          -172.1365         calculate D2E/DX2 analytically  !
 ! D19   D(8,4,5,1)            -30.0845         calculate D2E/DX2 analytically  !
 ! D20   D(8,4,5,9)           -149.6877         calculate D2E/DX2 analytically  !
 ! D21   D(8,4,5,12)            88.208          calculate D2E/DX2 analytically  !
 ! D22   D(5,4,8,3)             54.1436         calculate D2E/DX2 analytically  !
 ! D23   D(5,4,8,16)           -66.1558         calculate D2E/DX2 analytically  !
 ! D24   D(5,4,8,19)           171.4364         calculate D2E/DX2 analytically  !
 ! D25   D(1,5,9,10)            59.6752         calculate D2E/DX2 analytically  !
 ! D26   D(1,5,9,11)           -60.5172         calculate D2E/DX2 analytically  !
 ! D27   D(1,5,9,39)           179.8042         calculate D2E/DX2 analytically  !
 ! D28   D(4,5,9,10)           179.4249         calculate D2E/DX2 analytically  !
 ! D29   D(4,5,9,11)            59.2325         calculate D2E/DX2 analytically  !
 ! D30   D(4,5,9,39)           -60.4461         calculate D2E/DX2 analytically  !
 ! D31   D(12,5,9,10)          -59.9626         calculate D2E/DX2 analytically  !
 ! D32   D(12,5,9,11)          179.845          calculate D2E/DX2 analytically  !
 ! D33   D(12,5,9,39)           60.1664         calculate D2E/DX2 analytically  !
 ! D34   D(1,5,12,13)          179.1857         calculate D2E/DX2 analytically  !
 ! D35   D(1,5,12,14)          -60.6724         calculate D2E/DX2 analytically  !
 ! D36   D(1,5,12,15)           59.0653         calculate D2E/DX2 analytically  !
 ! D37   D(4,5,12,13)           59.5387         calculate D2E/DX2 analytically  !
 ! D38   D(4,5,12,14)          179.6806         calculate D2E/DX2 analytically  !
 ! D39   D(4,5,12,15)          -60.5817         calculate D2E/DX2 analytically  !
 ! D40   D(9,5,12,13)          -60.032          calculate D2E/DX2 analytically  !
 ! D41   D(9,5,12,14)           60.1099         calculate D2E/DX2 analytically  !
 ! D42   D(9,5,12,15)          179.8476         calculate D2E/DX2 analytically  !
 ! D43   D(2,6,23,24)           60.6734         calculate D2E/DX2 analytically  !
 ! D44   D(2,6,23,25)         -179.1876         calculate D2E/DX2 analytically  !
 ! D45   D(2,6,23,26)          -59.0629         calculate D2E/DX2 analytically  !
 ! D46   D(3,6,23,24)         -179.6861         calculate D2E/DX2 analytically  !
 ! D47   D(3,6,23,25)          -59.547          calculate D2E/DX2 analytically  !
 ! D48   D(3,6,23,26)           60.5777         calculate D2E/DX2 analytically  !
 ! D49   D(27,6,23,24)         -60.1188         calculate D2E/DX2 analytically  !
 ! D50   D(27,6,23,25)          60.0203         calculate D2E/DX2 analytically  !
 ! D51   D(27,6,23,26)        -179.855          calculate D2E/DX2 analytically  !
 ! D52   D(2,6,27,28)         -179.8001         calculate D2E/DX2 analytically  !
 ! D53   D(2,6,27,29)          -59.6701         calculate D2E/DX2 analytically  !
 ! D54   D(2,6,27,30)           60.5234         calculate D2E/DX2 analytically  !
 ! D55   D(3,6,27,28)           60.4679         calculate D2E/DX2 analytically  !
 ! D56   D(3,6,27,29)         -179.4022         calculate D2E/DX2 analytically  !
 ! D57   D(3,6,27,30)          -59.2087         calculate D2E/DX2 analytically  !
 ! D58   D(23,6,27,28)         -60.1637         calculate D2E/DX2 analytically  !
 ! D59   D(23,6,27,29)          59.9662         calculate D2E/DX2 analytically  !
 ! D60   D(23,6,27,30)        -179.8403         calculate D2E/DX2 analytically  !
 ! D61   D(1,7,31,32)          -59.2875         calculate D2E/DX2 analytically  !
 ! D62   D(1,7,31,33)           60.5198         calculate D2E/DX2 analytically  !
 ! D63   D(1,7,31,34)         -179.093          calculate D2E/DX2 analytically  !
 ! D64   D(2,7,31,32)           59.2837         calculate D2E/DX2 analytically  !
 ! D65   D(2,7,31,33)          179.091          calculate D2E/DX2 analytically  !
 ! D66   D(2,7,31,34)          -60.5218         calculate D2E/DX2 analytically  !
 ! D67   D(35,7,31,32)         179.9991         calculate D2E/DX2 analytically  !
 ! D68   D(35,7,31,33)         -60.1935         calculate D2E/DX2 analytically  !
 ! D69   D(35,7,31,34)          60.1937         calculate D2E/DX2 analytically  !
 ! D70   D(1,7,35,36)         -179.8064         calculate D2E/DX2 analytically  !
 ! D71   D(1,7,35,37)          -59.8033         calculate D2E/DX2 analytically  !
 ! D72   D(1,7,35,38)           60.1936         calculate D2E/DX2 analytically  !
 ! D73   D(2,7,35,36)           59.7758         calculate D2E/DX2 analytically  !
 ! D74   D(2,7,35,37)          179.7789         calculate D2E/DX2 analytically  !
 ! D75   D(2,7,35,38)          -60.2242         calculate D2E/DX2 analytically  !
 ! D76   D(31,7,35,36)         -60.0113         calculate D2E/DX2 analytically  !
 ! D77   D(31,7,35,37)          59.9918         calculate D2E/DX2 analytically  !
 ! D78   D(31,7,35,38)         179.9888         calculate D2E/DX2 analytically  !
 ! D79   D(3,8,16,17)          179.7772         calculate D2E/DX2 analytically  !
 ! D80   D(3,8,16,18)          -60.2388         calculate D2E/DX2 analytically  !
 ! D81   D(4,8,16,17)          -59.8147         calculate D2E/DX2 analytically  !
 ! D82   D(4,8,16,18)           60.1693         calculate D2E/DX2 analytically  !
 ! D83   D(19,8,16,17)          59.9806         calculate D2E/DX2 analytically  !
 ! D84   D(19,8,16,18)         179.9646         calculate D2E/DX2 analytically  !
 ! D85   D(3,8,19,20)          179.0183         calculate D2E/DX2 analytically  !
 ! D86   D(3,8,19,21)          -60.5758         calculate D2E/DX2 analytically  !
 ! D87   D(3,8,19,22)           59.221          calculate D2E/DX2 analytically  !
 ! D88   D(4,8,19,20)           60.5346         calculate D2E/DX2 analytically  !
 ! D89   D(4,8,19,21)         -179.0594         calculate D2E/DX2 analytically  !
 ! D90   D(4,8,19,22)          -59.2626         calculate D2E/DX2 analytically  !
 ! D91   D(16,8,19,20)         -60.2149         calculate D2E/DX2 analytically  !
 ! D92   D(16,8,19,21)          60.191          calculate D2E/DX2 analytically  !
 ! D93   D(16,8,19,22)         179.9878         calculate D2E/DX2 analytically  !
 --------------------------------------------------------------------------------
 Trust Radius=3.00D-01 FncErr=1.00D-07 GrdErr=1.00D-06 EigMax=2.50D+02 EigMin=1.00D-04
 Number of steps in this run=    215 maximum allowed number of steps=    234.
 GradGradGradGradGradGradGradGradGradGradGradGradGradGradGradGradGradGrad

                          Input orientation:                          
 ---------------------------------------------------------------------
 Center     Atomic      Atomic             Coordinates (Angstroms)
 Number     Number       Type             X           Y           Z
 ---------------------------------------------------------------------
      1          8           0       -1.344525    1.290774   -0.295546
      2          8           0        1.339123    1.296676   -0.297878
      3          8           0        1.343691   -1.323594    0.298657
      4          8           0       -1.340001   -1.331377    0.293302
      5         14           0       -2.281871   -0.008942    0.056938
      6         14           0        2.281211    0.001081    0.057296
      7         14           0       -0.004638    2.223589   -0.135430
      8         14           0        0.004977   -2.230877    0.021156
      9          6           0       -3.230051    0.306543    1.635679
     10          1           0       -3.873102    1.188839    1.542392
     11          1           0       -2.547045    0.473325    2.475836
     12          6           0       -3.419723   -0.302058   -1.395347
     13          1           0       -4.064178   -1.171460   -1.223617
     14          1           0       -4.063823    0.567211   -1.569382
     15          1           0       -2.846044   -0.482239   -2.311070
     16          6           0        0.009885   -2.828402   -1.752334
     17          1           0       -0.873652   -3.441433   -1.963211
     18          1           0        0.008122   -1.986182   -2.453561
     19          6           0        0.006793   -3.642455    1.240769
     20          1           0       -0.878022   -4.275947    1.113515
     21          1           0        0.895445   -4.271143    1.116446
     22          1           0        0.004069   -3.261166    2.267707
     23          6           0        3.418505   -0.292059   -1.395440
     24          1           0        4.059420    0.578961   -1.572452
     25          1           0        4.066148   -1.158763   -1.222070
     26          1           0        2.844530   -0.476636   -2.310099
     27          6           0        3.229967    0.323773    1.634212
     28          1           0        3.868714   -0.530066    1.886721
     29          1           0        3.869969    1.207965    1.538016
     30          1           0        2.547259    0.490396    2.474635
     31          6           0       -0.008412    3.476797   -1.517474
     32          1           0       -0.008053    2.974270   -2.490859
     33          1           0       -0.896473    4.116606   -1.468312
     34          1           0        0.876954    4.120433   -1.469648
     35          6           0       -0.005103    3.034279    1.551071
     36          1           0        0.879675    3.667266    1.682980
     37          1           0       -0.892247    3.663692    1.684187
     38          1           0       -0.003068    2.285456    2.351089
     39          1           0       -3.865693   -0.550063    1.886669
 ---------------------------------------------------------------------
                    Distance matrix (angstroms):
                    1          2          3          4          5
     1  O    0.000000
     2  O    2.683656   0.000000
     3  O    3.796644   2.687320   0.000000
     4  O    2.687459   3.799192   2.683709   0.000000
     5  Si   1.640769   3.865505   3.864122   1.640677   0.000000
     6  Si   3.864423   1.640806   1.640720   3.865788   4.563093
     7  Si   1.640451   1.640503   3.819546   3.821621   3.194838
     8  Si   3.784638   3.784886   1.640830   1.640771   3.188722
     9  C    2.872899   5.059284   5.036277   2.838494   1.868422
    10  H    3.127636   5.528608   5.922341   3.785276   2.484606
    11  H    3.129670   4.844966   4.806959   3.078532   2.480719
    12  C    2.837802   5.138775   5.157839   2.869891   1.868089
    13  H    3.784234   6.012017   5.620099   3.122140   2.483523
    14  H    3.088816   5.598274   6.025439   3.807024   2.480367
    15  H    3.075788   4.973239   5.007238   3.126013   2.479872
    16  C    4.574305   4.571497   2.872290   2.871916   4.058936
    17  H    5.039505   5.488113   3.810236   3.124367   4.224462
    18  H    4.150316   4.146769   3.130091   3.129131   3.931431
    19  C    5.340700   5.342055   2.837602   2.837716   4.454420
    20  H    5.761203   6.161322   3.783701   3.091386   4.614594
    21  H    6.160041   5.761751   3.091561   3.783782   5.420724
    22  H    5.395288   5.398011   3.070168   3.070649   4.548624
    23  C    5.138247   2.837702   2.870345   5.155134   5.889299
    24  H    5.598195   3.088636   3.807355   6.023635   6.573623
    25  H    6.011161   3.784175   3.122748   5.617170   6.576876
    26  H    4.972961   3.075698   3.126574   5.001858   5.665826
    27  C    5.058165   2.873117   2.838232   5.042040   5.742722
    28  H    5.937643   3.808975   3.086645   5.505615   6.438119
    29  H    5.528088   3.127868   3.785087   5.928015   6.443570
    30  H    4.843603   3.129937   3.077989   4.815378   5.423568
    31  C    2.838486   2.838343   5.307567   5.307596   4.449468
    32  H    3.072412   3.072193   5.299080   5.297569   4.534432
    33  H    3.092161   3.784153   6.142987   5.742867   4.611492
    34  H    3.784238   3.091965   5.743011   6.143705   5.418522
    35  C    2.871211   2.871379   4.730628   4.735281   4.083785
    36  H    3.809113   3.123234   5.200033   5.643102   5.114087
    37  H    3.123242   3.809246   5.638451   5.204398   4.250557
    38  H    3.129469   3.129886   4.364800   4.370739   3.964888
    39  H    3.808810   5.939091   5.500710   3.086809   2.479762
                    6          7          8          9         10
     6  Si   0.000000
     7  Si   3.194024   0.000000
     8  Si   3.188132   4.457228   0.000000
     9  C    5.740959   4.149118   4.417079   0.000000
    10  H    6.441417   4.341752   5.389630   1.095748   0.000000
    11  H    5.420739   4.043015   4.455444   1.095526   1.772486
    12  C    5.890901   4.430473   4.177965   3.097336   3.325453
    13  H    6.578720   5.402812   4.385185   3.325031   3.641199
    14  H    6.574651   4.612677   5.187894   3.321978   3.178983
    15  H    5.668465   4.486480   4.077418   4.043076   4.323947
    16  C    4.054585   5.304451   1.871451   5.639477   6.486219
    17  H    5.087879   6.015683   2.484984   5.705432   6.536465
    18  H    3.926901   4.805837   2.486787   5.697740   6.411887
    19  C    4.455215   6.025324   1.865479   5.121298   6.203706
    20  H    5.421192   6.675824   2.480977   5.177249   6.246465
    21  H    4.614547   6.675244   2.480983   6.184216   7.261672
    22  H    4.551214   5.988128   2.471535   4.856700   5.946518
    23  C    1.868103   4.431029   4.173480   7.331392   7.999466
    24  H    2.480333   4.613719   5.183945   7.968858   8.543952
    25  H    2.483549   5.402998   4.380428   7.971723   8.728412
    26  H    2.479940   4.487556   4.071262   7.285813   7.920989
    27  C    1.868404   4.147723   4.419134   6.460041   7.156141
    28  H    2.479734   5.164743   4.615361   7.152300   7.937815
    29  H    2.484603   4.341024   5.391165   7.157680   7.743096
    30  H    2.480673   4.040863   4.459606   5.840801   6.525177
    31  C    4.450042   1.865634   5.911438   5.511065   5.434460
    32  H    4.535821   2.472161   5.779615   5.875913   5.864596
    33  H    5.418736   2.481019   6.581920   5.440306   5.147473
    34  H    4.612218   2.481000   6.581943   6.407519   6.342686
    35  C    4.081530   1.871231   5.482938   4.224688   4.285690
    36  H    4.248301   2.484518   6.189899   5.309100   5.362020
    37  H    5.111979   2.484502   6.190043   4.091226   3.876919
    38  H    3.962043   2.487289   5.081921   3.852444   4.102892
    39  H    6.436986   5.166215   4.613823   1.095815   1.772671
                   11         12         13         14         15
    11  H    0.000000
    12  C    4.043370   0.000000
    13  H    4.323536   1.095752   0.000000
    14  H    4.321252   1.095802   1.772718   0.000000
    15  H    4.890498   1.095501   1.772408   1.770433   0.000000
    16  C    5.942787   4.274584   4.429784   5.306482   3.738047
    17  H    6.150668   4.081743   3.984876   5.138241   3.573257
    18  H    6.072644   3.963106   4.331300   4.886955   3.229305
    19  C    4.998712   5.463366   5.362072   6.495241   5.544475
    20  H    5.215088   5.342886   5.025099   6.387757   5.476597
    21  H    6.017363   6.378355   6.299348   7.430860   6.332646
    22  H    4.527463   5.822082   5.753855   6.776981   6.067189
    23  C    7.152648   6.838235   7.536141   7.533514   6.333966
    24  H    7.748882   7.532937   8.317362   8.123252   7.025463
    25  H    7.750648   7.536726   8.130336   8.318416   7.030079
    26  H    7.271635   6.333097   7.028049   7.025925   5.690577
    27  C    5.839911   7.334049   7.975428   7.970047   7.289226
    28  H    6.520415   7.996579   8.544961   8.722030   7.919073
    29  H    6.526658   8.001525   8.731493   8.544679   7.923199
    30  H    5.094333   7.156090   7.755639   7.750250   7.275762
    31  C    5.604643   5.092318   6.175912   4.991467   4.935171
    32  H    6.113041   4.855303   5.936761   4.805447   4.475932
    33  H    5.617311   5.088881   6.169106   4.758206   5.065614
    34  H    6.371186   6.166472   7.244270   6.086593   5.979406
    35  C    3.724936   5.610005   6.470180   5.683033   5.945837
    36  H    4.751030   6.611842   7.503550   6.680297   6.859432
    37  H    3.680150   5.621284   6.472647   5.498436   6.080144
    38  H    3.125892   5.692499   6.420390   5.900186   6.121958
    39  H    1.770105   3.321449   3.177957   3.637560   4.320335
                   16         17         18         19         20
    16  C    0.000000
    17  H    1.095862   0.000000
    18  H    1.095927   1.770798   0.000000
    19  C    3.101831   3.328826   4.048619   0.000000
    20  H    3.331194   3.187895   4.330393   1.095629   0.000000
    21  H    3.331008   3.647247   4.330513   1.095631   1.773476
    22  H    4.043272   4.324761   4.890396   1.095441   1.772011
    23  C    4.263696   5.353833   3.952263   5.460268   6.373881
    24  H    5.295396   6.375850   4.875380   6.492946   7.427172
    25  H    4.418387   5.491948   4.320737   5.358420   6.294173
    26  H    3.725200   4.768147   3.216290   5.539298   6.325606
    27  C    5.636828   6.630077   5.694389   5.125877   6.189032
    28  H    5.780625   6.766688   5.988530   5.001865   6.095980
    29  H    6.482199   7.508491   6.406959   6.207983   7.266148
    30  H    5.943059   6.845173   6.071884   5.005682   6.025216
    31  C    6.309598   6.986360   5.542623   7.634912   8.233065
    32  H    5.849508   6.495300   4.960619   7.596467   8.143341
    33  H    7.009657   7.574259   6.247642   8.267892   8.780724
    34  H    7.008425   7.777535   6.246095   8.268372   8.958341
    35  C    6.729319   7.418854   6.422015   6.683951   7.375151
    36  H    7.399434   8.179393   7.059182   7.374923   8.155270
    37  H    7.400730   7.986655   7.060644   7.374597   7.960134
    38  H    6.556660   7.222767   6.428972   6.031006   6.734177
    39  H    5.783881   5.668678   5.992201   4.997622   4.837991
                   21         22         23         24         25
    21  H    0.000000
    22  H    1.772006   0.000000
    23  C    5.339336   5.821736   0.000000
    24  H    6.384702   6.777851   1.095802   0.000000
    25  H    5.020849   5.753184   1.095753   1.772709   0.000000
    26  H    5.471602   6.064498   1.095499   1.770414   1.772415
    27  C    5.179896   4.864105   3.097352   3.322019   3.324975
    28  H    4.840383   4.747582   3.321433   3.637607   3.177864
    29  H    6.248691   5.954054   3.325516   3.179080   3.641148
    30  H    5.219715   4.537053   4.043363   4.321272   4.323468
    31  C    8.233169   7.728383   5.095383   4.994771   6.178812
    32  H    8.144014   7.843772   4.859027   4.808879   5.940615
    33  H    8.958029   8.318674   6.169333   6.089881   7.246914
    34  H    8.781046   8.319721   5.092649   4.762424   6.172695
    35  C    7.373539   6.336109   5.609594   5.683778   6.468925
    36  H    7.958615   7.007978   5.621262   5.499658   6.471745
    37  H    8.153513   7.006963   6.611706   6.681337   7.502538
    38  H    6.732062   5.547253   5.690978   5.900009   6.417837
    39  H    6.091643   4.740288   7.993644   8.720529   8.541011
                   26         27         28         29         30
    26  H    0.000000
    27  C    4.043118   0.000000
    28  H    4.320313   1.095810   0.000000
    29  H    4.324048   1.095743   1.772667   0.000000
    30  H    4.890521   1.095520   1.770093   1.772490   0.000000
    31  C    4.939349   5.510153   6.532656   5.433733   5.602408
    32  H    4.480921   5.875893   6.817103   5.864360   6.111905
    33  H    5.983442   6.406149   7.453510   6.341701   6.368322
    34  H    5.070578   5.439232   6.468615   5.146518   5.614664
    35  C    5.946055   4.221307   5.274815   4.283897   3.720062
    36  H    6.080893   4.087199   5.156885   3.874408   3.674242
    37  H    6.860039   5.305677   6.347864   5.360099   4.746032
    38  H    6.120837   3.848978   4.809729   4.101523   3.121165
    39  H    7.914881   7.153720   7.734433   7.940572   6.523359
                   31         32         33         34         35
    31  C    0.000000
    32  H    1.095451   0.000000
    33  H    1.095639   1.771955   0.000000
    34  H    1.095640   1.771948   1.773432   0.000000
    35  C    3.100291   4.042377   3.329061   3.329039   0.000000
    36  H    3.326843   4.323105   3.645168   3.185032   1.095858
    37  H    3.326669   4.322975   3.184870   3.644909   1.095858
    38  H    4.047851   4.890700   4.328869   4.328927   1.095796
    39  H    6.533177   6.816529   6.469155   7.454602   5.278664
                   36         37         38         39
    36  H    0.000000
    37  H    1.771926   0.000000
    38  H    1.770594   1.770574   0.000000
    39  H    6.351840   5.161212   4.814117   0.000000
 Stoichiometry    C8H23O4Si4(2)
 Framework group  C1[X(C8H23O4Si4)]
 Deg. of freedom   111
 Full point group                 C1      NOp   1
 Largest Abelian subgroup         C1      NOp   1
 Largest concise Abelian subgroup C1      NOp   1
                         Standard orientation:                         
 ---------------------------------------------------------------------
 Center     Atomic      Atomic             Coordinates (Angstroms)
 Number     Number       Type             X           Y           Z
 ---------------------------------------------------------------------
      1          8           0        1.214572   -1.394344   -0.280683
      2          8           0       -1.457756   -1.148400   -0.294218
      3          8           0       -1.217792    1.470641    0.257805
      4          8           0        1.454776    1.226433    0.263622
      5         14           0        2.268909   -0.182442    0.053671
      6         14           0       -2.274935    0.235830    0.034980
      7         14           0       -0.207405   -2.194390   -0.110428
      8         14           0        0.200925    2.243355   -0.029389
      9          6           0        3.179160   -0.558215    1.641510
     10          1           0        3.736756   -1.498446    1.565897
     11          1           0        2.481327   -0.645630    2.481489
     12          6           0        3.433033   -0.022526   -1.398568
     13          1           0        4.155835    0.785392   -1.238882
     14          1           0        3.993107   -0.951281   -1.555133
     15          1           0        2.881195    0.194862   -2.319620
     16          6           0        0.256766    2.807993   -1.812755
     17          1           0        1.194512    3.331666   -2.030267
     18          1           0        0.181254    1.957343   -2.499596
     19          6           0        0.328501    3.669720    1.166110
     20          1           0        1.269224    4.215085    1.031868
     21          1           0       -0.496858    4.376792    1.027410
     22          1           0        0.292735    3.307646    2.199364
     23          6           0       -3.375891    0.609283   -1.427292
     24          1           0       -4.095307   -0.200669   -1.592217
     25          1           0       -3.939731    1.535807   -1.271363
     26          1           0       -2.784741    0.723358   -2.342522
     27          6           0       -3.253902    0.030878    1.613128
     28          1           0       -3.810299    0.945126    1.848439
     29          1           0       -3.973856   -0.790877    1.529234
     30          1           0       -2.592048   -0.184546    2.459121
     31          6           0       -0.317737   -3.466095   -1.471009
     32          1           0       -0.268371   -2.982634   -2.452763
     33          1           0        0.506185   -4.185480   -1.407273
     34          1           0       -1.259755   -4.022877   -1.416013
     35          6           0       -0.287461   -2.972305    1.589555
     36          1           0       -1.228112   -3.517090    1.728444
     37          1           0        0.536306   -3.679805    1.737053
     38          1           0       -0.221248   -2.212895    2.376754
     39          1           0        3.891780    0.239161    1.880624
 ---------------------------------------------------------------------
 Rotational constants (GHZ):           0.3713805           0.3582209           0.2351780
 Standard basis: 6-31+G(2df,p) (6D, 7F)
 There are   691 symmetry adapted cartesian basis functions of A   symmetry.
 There are   643 symmetry adapted basis functions of A   symmetry.
   643 basis functions,  1025 primitive gaussians,   691 cartesian basis functions
    80 alpha electrons       79 beta electrons
       nuclear repulsion energy      1862.9755142826 Hartrees.
 NAtoms=   39 NActive=   39 NUniq=   39 SFac= 1.00D+00 NAtFMM=   60 NAOKFM=F Big=F
 Integral buffers will be    131072 words long.
 Raffenetti 2 integral format.
 Two-electron integral symmetry is turned on.
 One-electron integrals computed using PRISM.
 NBasis=   643 RedAO= T EigKep=  1.02D-05  NBF=   643
 NBsUse=   643 1.00D-06 EigRej= -1.00D+00 NBFU=   643
 ExpMin= 3.31D-02 ExpMax= 1.61D+04 ExpMxC= 2.43D+03 IAcc=3 IRadAn=         5 AccDes= 0.00D+00
 Harris functional with IExCor=  402 and IRadAn=       5 diagonalized for initial guess.
 HarFok:  IExCor=  402 AccDes= 0.00D+00 IRadAn=         5 IDoV= 1 UseB2=F ITyADJ=14
 ICtDFT=  3500011 ScaDFX=  1.000000  1.000000  1.000000  1.000000
 FoFCou: FMM=F IPFlag=           0 FMFlag=      100000 FMFlg1=           0
         NFxFlg=           0 DoJE=T BraDBF=F KetDBF=T FulRan=T
         wScrn=  0.000000 ICntrl=       500 IOpCl=  0 I1Cent=   200000004 NGrid=           0
         NMat0=    1 NMatS0=      1 NMatT0=    0 NMatD0=    1 NMtDS0=    0 NMtDT0=    0
 Petite list used in FoFCou.
 Initial guess <Sx>= 0.0000 <Sy>= 0.0000 <Sz>= 0.5000 <S**2>= 0.7500 S= 0.5000
 Requested convergence on RMS density matrix=1.00D-08 within 128 cycles.
 Requested convergence on MAX density matrix=1.00D-06.
 Requested convergence on             energy=1.00D-06.
 No special actions if energy rises.
 SCF Done:  E(UB3LYP) =  -1778.14504967     A.U. after   14 cycles
            NFock= 14  Conv=0.81D-08     -V/T= 2.0051
 <Sx>= 0.0000 <Sy>= 0.0000 <Sz>= 0.5000 <S**2>= 0.7532 S= 0.5016
 <L.S>=  0.00000000000    
 Annihilation of the first spin contaminant:
 S**2 before annihilation     0.7532,   after     0.7500
 DoSCS=F DFT=T ScalE2(SS,OS)=  1.000000  1.000000
 Range of M.O.s used for correlation:     1   643
 NBasis=   643 NAE=    80 NBE=    79 NFC=     0 NFV=     0
 NROrb=    643 NOA=    80 NOB=    79 NVA=   563 NVB=   564

 **** Warning!!: The largest alpha MO coefficient is  0.54261566D+02


 **** Warning!!: The largest beta MO coefficient is  0.52650343D+02

 Symmetrizing basis deriv contribution to polar:
 IMax=3 JMax=2 DiffMx= 0.00D+00
 G2DrvN: will do    40 centers at a time, making    1 passes.
 Calling FoFCou, ICntrl=  3107 FMM=F I1Cent=   0 AccDes= 0.00D+00.
 End of G2Drv F.D. properties file   721 does not exist.
 End of G2Drv F.D. properties file   722 does not exist.
 End of G2Drv F.D. properties file   788 does not exist.
          IDoAtm=111111111111111111111111111111111111111
          Differentiating once with respect to nuclear coordinates.
 CalDSu exits because no D1Ps are significant.
          There are   120 degrees of freedom in the 1st order CPHF.  IDoFFX=6 NUNeed=     0.
    114 vectors produced by pass  0 Test12= 8.96D-14 1.00D-09 XBig12= 2.72D-01 5.50D-02.
 AX will form   114 AO Fock derivatives at one time.
    114 vectors produced by pass  1 Test12= 8.96D-14 1.00D-09 XBig12= 3.00D-02 1.26D-02.
    114 vectors produced by pass  2 Test12= 8.96D-14 1.00D-09 XBig12= 4.03D-04 1.76D-03.
    114 vectors produced by pass  3 Test12= 8.96D-14 1.00D-09 XBig12= 3.84D-06 1.61D-04.
    114 vectors produced by pass  4 Test12= 8.96D-14 1.00D-09 XBig12= 1.10D-08 6.42D-06.
    105 vectors produced by pass  5 Test12= 8.96D-14 1.00D-09 XBig12= 4.70D-11 4.36D-07.
     43 vectors produced by pass  6 Test12= 8.96D-14 1.00D-09 XBig12= 2.38D-13 2.63D-08.
      6 vectors produced by pass  7 Test12= 8.96D-14 1.00D-09 XBig12= 1.29D-15 1.79D-09.
      6 vectors produced by pass  8 Test12= 8.96D-14 1.00D-09 XBig12= 3.21D-15 6.06D-09.
      6 vectors produced by pass  9 Test12= 8.96D-14 1.00D-09 XBig12= 2.36D-14 1.12D-08.
      6 vectors produced by pass 10 Test12= 8.96D-14 1.00D-09 XBig12= 1.19D-14 7.95D-09.
      6 vectors produced by pass 11 Test12= 8.96D-14 1.00D-09 XBig12= 1.60D-14 9.22D-09.
      6 vectors produced by pass 12 Test12= 8.96D-14 1.00D-09 XBig12= 1.50D-14 9.99D-09.
      6 vectors produced by pass 13 Test12= 8.96D-14 1.00D-09 XBig12= 1.51D-14 9.58D-09.
      6 vectors produced by pass 14 Test12= 8.96D-14 1.00D-09 XBig12= 1.75D-14 8.29D-09.
      6 vectors produced by pass 15 Test12= 8.96D-14 1.00D-09 XBig12= 8.09D-15 5.35D-09.
      6 vectors produced by pass 16 Test12= 8.96D-14 1.00D-09 XBig12= 1.05D-14 7.34D-09.
      6 vectors produced by pass 17 Test12= 8.96D-14 1.00D-09 XBig12= 1.94D-14 9.07D-09.
      5 vectors produced by pass 18 Test12= 8.96D-14 1.00D-09 XBig12= 2.80D-15 3.06D-09.
      4 vectors produced by pass 19 Test12= 8.96D-14 1.00D-09 XBig12= 7.13D-15 6.59D-09.
      4 vectors produced by pass 20 Test12= 8.96D-14 1.00D-09 XBig12= 1.80D-14 7.31D-09.
      4 vectors produced by pass 21 Test12= 8.96D-14 1.00D-09 XBig12= 4.51D-15 3.45D-09.
      4 vectors produced by pass 22 Test12= 8.96D-14 1.00D-09 XBig12= 4.60D-15 3.93D-09.
      4 vectors produced by pass 23 Test12= 8.96D-14 1.00D-09 XBig12= 1.11D-14 6.17D-09.
      4 vectors produced by pass 24 Test12= 8.96D-14 1.00D-09 XBig12= 6.49D-15 4.04D-09.
      4 vectors produced by pass 25 Test12= 8.96D-14 1.00D-09 XBig12= 5.35D-15 4.27D-09.
      4 vectors produced by pass 26 Test12= 8.96D-14 1.00D-09 XBig12= 4.19D-15 3.82D-09.
      4 vectors produced by pass 27 Test12= 8.96D-14 1.00D-09 XBig12= 7.70D-15 6.40D-09.
      4 vectors produced by pass 28 Test12= 8.96D-14 1.00D-09 XBig12= 1.29D-14 6.92D-09.
      4 vectors produced by pass 29 Test12= 8.96D-14 1.00D-09 XBig12= 5.72D-15 4.84D-09.
      3 vectors produced by pass 30 Test12= 8.96D-14 1.00D-09 XBig12= 4.11D-15 3.65D-09.
      3 vectors produced by pass 31 Test12= 8.96D-14 1.00D-09 XBig12= 4.60D-15 3.45D-09.
      2 vectors produced by pass 32 Test12= 8.96D-14 1.00D-09 XBig12= 5.80D-15 4.89D-09.
 InvSVY:  IOpt=1 It=  1 EMax= 7.22D-16
 Solved reduced A of dimension   841 with   120 vectors.
 End of Minotr F.D. properties file   721 does not exist.
 End of Minotr F.D. properties file   722 does not exist.
 End of Minotr F.D. properties file   788 does not exist.

 **********************************************************************

            Population analysis using the SCF density.

 **********************************************************************

 Orbital symmetries:
 Alpha Orbitals:
       Occupied  (A) (A) (A) (A) (A) (A) (A) (A) (A) (A) (A) (A)
                 (A) (A) (A) (A) (A) (A) (A) (A) (A) (A) (A) (A)
                 (A) (A) (A) (A) (A) (A) (A) (A) (A) (A) (A) (A)
                 (A) (A) (A) (A) (A) (A) (A) (A) (A) (A) (A) (A)
                 (A) (A) (A) (A) (A) (A) (A) (A) (A) (A) (A) (A)
                 (A) (A) (A) (A) (A) (A) (A) (A) (A) (A) (A) (A)
                 (A) (A) (A) (A) (A) (A) (A) (A)
       Virtual   (A) (A) (A) (A) (A) (A) (A) (A) (A) (A) (A) (A)
                 (A) (A) (A) (A) (A) (A) (A) (A) (A) (A) (A) (A)
                 (A) (A) (A) (A) (A) (A) (A) (A) (A) (A) (A) (A)
                 (A) (A) (A) (A) (A) (A) (A) (A) (A) (A) (A) (A)
                 (A) (A) (A) (A) (A) (A) (A) (A) (A) (A) (A) (A)
                 (A) (A) (A) (A) (A) (A) (A) (A) (A) (A) (A) (A)
                 (A) (A) (A) (A) (A) (A) (A) (A) (A) (A) (A) (A)
                 (A) (A) (A) (A) (A) (A) (A) (A) (A) (A) (A) (A)
                 (A) (A) (A) (A) (A) (A) (A) (A) (A) (A) (A) (A)
                 (A) (A) (A) (A) (A) (A) (A) (A) (A) (A) (A) (A)
                 (A) (A) (A) (A) (A) (A) (A) (A) (A) (A) (A) (A)
                 (A) (A) (A) (A) (A) (A) (A) (A) (A) (A) (A) (A)
                 (A) (A) (A) (A) (A) (A) (A) (A) (A) (A) (A) (A)
                 (A) (A) (A) (A) (A) (A) (A) (A) (A) (A) (A) (A)
                 (A) (A) (A) (A) (A) (A) (A) (A) (A) (A) (A) (A)
                 (A) (A) (A) (A) (A) (A) (A) (A) (A) (A) (A) (A)
                 (A) (A) (A) (A) (A) (A) (A) (A) (A) (A) (A) (A)
                 (A) (A) (A) (A) (A) (A) (A) (A) (A) (A) (A) (A)
                 (A) (A) (A) (A) (A) (A) (A) (A) (A) (A) (A) (A)
                 (A) (A) (A) (A) (A) (A) (A) (A) (A) (A) (A) (A)
                 (A) (A) (A) (A) (A) (A) (A) (A) (A) (A) (A) (A)
                 (A) (A) (A) (A) (A) (A) (A) (A) (A) (A) (A) (A)
                 (A) (A) (A) (A) (A) (A) (A) (A) (A) (A) (A) (A)
                 (A) (A) (A) (A) (A) (A) (A) (A) (A) (A) (A) (A)
                 (A) (A) (A) (A) (A) (A) (A) (A) (A) (A) (A) (A)
                 (A) (A) (A) (A) (A) (A) (A) (A) (A) (A) (A) (A)
                 (A) (A) (A) (A) (A) (A) (A) (A) (A) (A) (A) (A)
                 (A) (A) (A) (A) (A) (A) (A) (A) (A) (A) (A) (A)
                 (A) (A) (A) (A) (A) (A) (A) (A) (A) (A) (A) (A)
                 (A) (A) (A) (A) (A) (A) (A) (A) (A) (A) (A) (A)
                 (A) (A) (A) (A) (A) (A) (A) (A) (A) (A) (A) (A)
                 (A) (A) (A) (A) (A) (A) (A) (A) (A) (A) (A) (A)
                 (A) (A) (A) (A) (A) (A) (A) (A) (A) (A) (A) (A)
                 (A) (A) (A) (A) (A) (A) (A) (A) (A) (A) (A) (A)
                 (A) (A) (A) (A) (A) (A) (A) (A) (A) (A) (A) (A)
                 (A) (A) (A) (A) (A) (A) (A) (A) (A) (A) (A) (A)
                 (A) (A) (A) (A) (A) (A) (A) (A) (A) (A) (A) (A)
                 (A) (A) (A) (A) (A) (A) (A) (A) (A) (A) (A) (A)
                 (A) (A) (A) (A) (A) (A) (A) (A) (A) (A) (A) (A)
                 (A) (A) (A) (A) (A) (A) (A) (A) (A) (A) (A) (A)
                 (A) (A) (A) (A) (A) (A) (A) (A) (A) (A) (A) (A)
                 (A) (A) (A) (A) (A) (A) (A) (A) (A) (A) (A) (A)
                 (A) (A) (A) (A) (A) (A) (A) (A) (A) (A) (A) (A)
                 (A) (A) (A) (A) (A) (A) (A) (A) (A) (A) (A) (A)
                 (A) (A) (A) (A) (A) (A) (A) (A) (A) (A) (A) (A)
                 (A) (A) (A) (A) (A) (A) (A) (A) (A) (A) (A) (A)
                 (A) (A) (A) (A) (A) (A) (A) (A) (A) (A) (A)
 Beta  Orbitals:
       Occupied  (A) (A) (A) (A) (A) (A) (A) (A) (A) (A) (A) (A)
                 (A) (A) (A) (A) (A) (A) (A) (A) (A) (A) (A) (A)
                 (A) (A) (A) (A) (A) (A) (A) (A) (A) (A) (A) (A)
                 (A) (A) (A) (A) (A) (A) (A) (A) (A) (A) (A) (A)
                 (A) (A) (A) (A) (A) (A) (A) (A) (A) (A) (A) (A)
                 (A) (A) (A) (A) (A) (A) (A) (A) (A) (A) (A) (A)
                 (A) (A) (A) (A) (A) (A) (A)
       Virtual   (A) (A) (A) (A) (A) (A) (A) (A) (A) (A) (A) (A)
                 (A) (A) (A) (A) (A) (A) (A) (A) (A) (A) (A) (A)
                 (A) (A) (A) (A) (A) (A) (A) (A) (A) (A) (A) (A)
                 (A) (A) (A) (A) (A) (A) (A) (A) (A) (A) (A) (A)
                 (A) (A) (A) (A) (A) (A) (A) (A) (A) (A) (A) (A)
                 (A) (A) (A) (A) (A) (A) (A) (A) (A) (A) (A) (A)
                 (A) (A) (A) (A) (A) (A) (A) (A) (A) (A) (A) (A)
                 (A) (A) (A) (A) (A) (A) (A) (A) (A) (A) (A) (A)
                 (A) (A) (A) (A) (A) (A) (A) (A) (A) (A) (A) (A)
                 (A) (A) (A) (A) (A) (A) (A) (A) (A) (A) (A) (A)
                 (A) (A) (A) (A) (A) (A) (A) (A) (A) (A) (A) (A)
                 (A) (A) (A) (A) (A) (A) (A) (A) (A) (A) (A) (A)
                 (A) (A) (A) (A) (A) (A) (A) (A) (A) (A) (A) (A)
                 (A) (A) (A) (A) (A) (A) (A) (A) (A) (A) (A) (A)
                 (A) (A) (A) (A) (A) (A) (A) (A) (A) (A) (A) (A)
                 (A) (A) (A) (A) (A) (A) (A) (A) (A) (A) (A) (A)
                 (A) (A) (A) (A) (A) (A) (A) (A) (A) (A) (A) (A)
                 (A) (A) (A) (A) (A) (A) (A) (A) (A) (A) (A) (A)
                 (A) (A) (A) (A) (A) (A) (A) (A) (A) (A) (A) (A)
                 (A) (A) (A) (A) (A) (A) (A) (A) (A) (A) (A) (A)
                 (A) (A) (A) (A) (A) (A) (A) (A) (A) (A) (A) (A)
                 (A) (A) (A) (A) (A) (A) (A) (A) (A) (A) (A) (A)
                 (A) (A) (A) (A) (A) (A) (A) (A) (A) (A) (A) (A)
                 (A) (A) (A) (A) (A) (A) (A) (A) (A) (A) (A) (A)
                 (A) (A) (A) (A) (A) (A) (A) (A) (A) (A) (A) (A)
                 (A) (A) (A) (A) (A) (A) (A) (A) (A) (A) (A) (A)
                 (A) (A) (A) (A) (A) (A) (A) (A) (A) (A) (A) (A)
                 (A) (A) (A) (A) (A) (A) (A) (A) (A) (A) (A) (A)
                 (A) (A) (A) (A) (A) (A) (A) (A) (A) (A) (A) (A)
                 (A) (A) (A) (A) (A) (A) (A) (A) (A) (A) (A) (A)
                 (A) (A) (A) (A) (A) (A) (A) (A) (A) (A) (A) (A)
                 (A) (A) (A) (A) (A) (A) (A) (A) (A) (A) (A) (A)
                 (A) (A) (A) (A) (A) (A) (A) (A) (A) (A) (A) (A)
                 (A) (A) (A) (A) (A) (A) (A) (A) (A) (A) (A) (A)
                 (A) (A) (A) (A) (A) (A) (A) (A) (A) (A) (A) (A)
                 (A) (A) (A) (A) (A) (A) (A) (A) (A) (A) (A) (A)
                 (A) (A) (A) (A) (A) (A) (A) (A) (A) (A) (A) (A)
                 (A) (A) (A) (A) (A) (A) (A) (A) (A) (A) (A) (A)
                 (A) (A) (A) (A) (A) (A) (A) (A) (A) (A) (A) (A)
                 (A) (A) (A) (A) (A) (A) (A) (A) (A) (A) (A) (A)
                 (A) (A) (A) (A) (A) (A) (A) (A) (A) (A) (A) (A)
                 (A) (A) (A) (A) (A) (A) (A) (A) (A) (A) (A) (A)
                 (A) (A) (A) (A) (A) (A) (A) (A) (A) (A) (A) (A)
                 (A) (A) (A) (A) (A) (A) (A) (A) (A) (A) (A) (A)
                 (A) (A) (A) (A) (A) (A) (A) (A) (A) (A) (A) (A)
                 (A) (A) (A) (A) (A) (A) (A) (A) (A) (A) (A) (A)
                 (A) (A) (A) (A) (A) (A) (A) (A) (A) (A) (A) (A)
 The electronic state is 2-A.
 Alpha  occ. eigenvalues --  -66.16333 -66.16187 -66.15961 -66.15833 -19.13338
 Alpha  occ. eigenvalues --  -19.12759 -19.12600 -19.12559 -10.19644 -10.16415
 Alpha  occ. eigenvalues --  -10.16390 -10.16389 -10.16132 -10.16132 -10.16033
 Alpha  occ. eigenvalues --  -10.16019  -5.30015  -5.29897  -5.29683  -5.29539
 Alpha  occ. eigenvalues --   -3.66130  -3.66030  -3.65951  -3.65836  -3.65807
 Alpha  occ. eigenvalues --   -3.65806  -3.65671  -3.65657  -3.65627  -3.65478
 Alpha  occ. eigenvalues --   -3.65447  -3.65300  -1.00553  -0.98625  -0.98334
 Alpha  occ. eigenvalues --   -0.96292  -0.71268  -0.70414  -0.70272  -0.69765
 Alpha  occ. eigenvalues --   -0.68442  -0.68262  -0.68073  -0.67790  -0.57829
 Alpha  occ. eigenvalues --   -0.54383  -0.54184  -0.48766  -0.42904  -0.42578
 Alpha  occ. eigenvalues --   -0.41892  -0.41590  -0.41554  -0.41154  -0.40998
 Alpha  occ. eigenvalues --   -0.40663  -0.40465  -0.40209  -0.40021  -0.39931
 Alpha  occ. eigenvalues --   -0.39424  -0.39261  -0.39228  -0.39084  -0.38866
 Alpha  occ. eigenvalues --   -0.37726  -0.37345  -0.37188  -0.36427  -0.36109
 Alpha  occ. eigenvalues --   -0.34808  -0.34267  -0.33885  -0.32679  -0.31297
 Alpha  occ. eigenvalues --   -0.30723  -0.29229  -0.28371  -0.27355  -0.25577
 Alpha virt. eigenvalues --   -0.01491   0.00046   0.00247   0.00846   0.01807
 Alpha virt. eigenvalues --    0.02518   0.02821   0.03831   0.04360   0.04545
 Alpha virt. eigenvalues --    0.05249   0.05406   0.05636   0.06019   0.06196
 Alpha virt. eigenvalues --    0.06524   0.07107   0.07227   0.07675   0.07885
 Alpha virt. eigenvalues --    0.08282   0.08381   0.08493   0.08802   0.09163
 Alpha virt. eigenvalues --    0.09277   0.09379   0.09390   0.09925   0.10276
 Alpha virt. eigenvalues --    0.10428   0.11258   0.11379   0.11850   0.11884
 Alpha virt. eigenvalues --    0.12237   0.12420   0.12586   0.12820   0.12998
 Alpha virt. eigenvalues --    0.13595   0.13910   0.14437   0.14729   0.15796
 Alpha virt. eigenvalues --    0.16036   0.16508   0.16681   0.17057   0.17263
 Alpha virt. eigenvalues --    0.17339   0.17678   0.18103   0.18895   0.18917
 Alpha virt. eigenvalues --    0.19327   0.19618   0.19877   0.20141   0.20465
 Alpha virt. eigenvalues --    0.20477   0.21042   0.21163   0.21241   0.21722
 Alpha virt. eigenvalues --    0.22778   0.23224   0.23352   0.23726   0.23985
 Alpha virt. eigenvalues --    0.24214   0.24747   0.24811   0.25518   0.25772
 Alpha virt. eigenvalues --    0.26072   0.26699   0.26984   0.28011   0.28900
 Alpha virt. eigenvalues --    0.30067   0.31338   0.33237   0.33318   0.33387
 Alpha virt. eigenvalues --    0.34669   0.34957   0.35069   0.35275   0.35843
 Alpha virt. eigenvalues --    0.36590   0.37086   0.37221   0.37777   0.38559
 Alpha virt. eigenvalues --    0.39038   0.39492   0.39519   0.40394   0.40710
 Alpha virt. eigenvalues --    0.40963   0.42096   0.43051   0.44949   0.45986
 Alpha virt. eigenvalues --    0.46300   0.46738   0.46979   0.47169   0.47884
 Alpha virt. eigenvalues --    0.48163   0.48795   0.49214   0.49272   0.52324
 Alpha virt. eigenvalues --    0.52505   0.52970   0.53263   0.53733   0.54245
 Alpha virt. eigenvalues --    0.56308   0.56840   0.58064   0.60570   0.61656
 Alpha virt. eigenvalues --    0.61984   0.62424   0.62440   0.63040   0.63305
 Alpha virt. eigenvalues --    0.64336   0.65892   0.66339   0.67171   0.67437
 Alpha virt. eigenvalues --    0.68985   0.69223   0.71059   0.71360   0.72728
 Alpha virt. eigenvalues --    0.73270   0.73710   0.74393   0.75105   0.75163
 Alpha virt. eigenvalues --    0.76476   0.76519   0.77017   0.77591   0.77752
 Alpha virt. eigenvalues --    0.79107   0.79463   0.80664   0.80820   0.81042
 Alpha virt. eigenvalues --    0.81185   0.81568   0.81931   0.82013   0.82056
 Alpha virt. eigenvalues --    0.82866   0.83069   0.83536   0.83726   0.83918
 Alpha virt. eigenvalues --    0.84202   0.85253   0.85541   0.85886   0.86436
 Alpha virt. eigenvalues --    0.86842   0.87488   0.87960   0.88662   0.89995
 Alpha virt. eigenvalues --    0.90264   0.90700   0.91000   0.91776   0.92569
 Alpha virt. eigenvalues --    0.93554   0.93623   0.93981   0.94585   0.95315
 Alpha virt. eigenvalues --    0.96318   0.98492   1.00704   1.01299   1.02308
 Alpha virt. eigenvalues --    1.02391   1.02959   1.04276   1.05187   1.05646
 Alpha virt. eigenvalues --    1.06407   1.06953   1.07647   1.08240   1.09473
 Alpha virt. eigenvalues --    1.10005   1.12481   1.13494   1.14531   1.15171
 Alpha virt. eigenvalues --    1.17083   1.17693   1.19156   1.19912   1.22432
 Alpha virt. eigenvalues --    1.22767   1.22887   1.24727   1.24904   1.26055
 Alpha virt. eigenvalues --    1.27144   1.27854   1.28041   1.31091   1.32292
 Alpha virt. eigenvalues --    1.33062   1.33764   1.35321   1.35839   1.37460
 Alpha virt. eigenvalues --    1.37776   1.38257   1.38835   1.38984   1.40681
 Alpha virt. eigenvalues --    1.41489   1.42027   1.42783   1.43873   1.44717
 Alpha virt. eigenvalues --    1.45045   1.45997   1.46452   1.47090   1.47452
 Alpha virt. eigenvalues --    1.48706   1.50125   1.50467   1.50723   1.51776
 Alpha virt. eigenvalues --    1.52300   1.53030   1.54363   1.56073   1.56447
 Alpha virt. eigenvalues --    1.57039   1.57403   1.57730   1.58965   1.60195
 Alpha virt. eigenvalues --    1.61242   1.61533   1.62197   1.63587   1.64174
 Alpha virt. eigenvalues --    1.64302   1.64383   1.65031   1.67244   1.69259
 Alpha virt. eigenvalues --    1.69563   1.70811   1.71695   1.72058   1.74231
 Alpha virt. eigenvalues --    1.75232   1.75927   1.76985   1.78348   1.78838
 Alpha virt. eigenvalues --    1.80290   1.82625   1.83752   1.84468   1.86236
 Alpha virt. eigenvalues --    1.88644   1.89592   1.89966   1.91518   1.92109
 Alpha virt. eigenvalues --    1.92363   1.92735   1.94081   1.94560   1.94766
 Alpha virt. eigenvalues --    1.95183   1.95417   1.95658   1.96178   1.96409
 Alpha virt. eigenvalues --    1.97077   1.97145   1.98240   1.98700   1.99264
 Alpha virt. eigenvalues --    1.99722   2.00163   2.00741   2.02288   2.03370
 Alpha virt. eigenvalues --    2.04241   2.07053   2.08436   2.10952   2.11152
 Alpha virt. eigenvalues --    2.12201   2.13820   2.14738   2.15212   2.15790
 Alpha virt. eigenvalues --    2.18370   2.19321   2.19675   2.22381   2.24480
 Alpha virt. eigenvalues --    2.27130   2.33292   2.34072   2.37527   2.38880
 Alpha virt. eigenvalues --    2.40485   2.40739   2.41048   2.44110   2.45179
 Alpha virt. eigenvalues --    2.46588   2.47392   2.47446   2.48799   2.48842
 Alpha virt. eigenvalues --    2.49072   2.49891   2.50754   2.52163   2.52728
 Alpha virt. eigenvalues --    2.54162   2.54449   2.55408   2.55846   2.56861
 Alpha virt. eigenvalues --    2.58740   2.59676   2.64574   2.66019   2.71989
 Alpha virt. eigenvalues --    2.73565   2.76686   2.78543   2.79364   2.80669
 Alpha virt. eigenvalues --    2.80958   2.83098   2.84920   2.85585   2.86974
 Alpha virt. eigenvalues --    2.87906   2.88515   2.88882   2.89597   2.90120
 Alpha virt. eigenvalues --    2.90636   2.91182   2.91410   2.91512   2.94341
 Alpha virt. eigenvalues --    2.96761   2.97554   2.98792   2.99215   2.99259
 Alpha virt. eigenvalues --    2.99386   2.99466   2.99694   3.00000   3.00125
 Alpha virt. eigenvalues --    3.00197   3.00717   3.00884   3.01258   3.01662
 Alpha virt. eigenvalues --    3.01971   3.02215   3.02953   3.05004   3.06792
 Alpha virt. eigenvalues --    3.09090   3.09434   3.18213   3.23108   3.27496
 Alpha virt. eigenvalues --    3.29985   3.33101   3.37966   3.38507   3.39247
 Alpha virt. eigenvalues --    3.40874   3.41988   3.44117   3.44697   3.47540
 Alpha virt. eigenvalues --    3.48011   3.51990   3.53408   3.53440   3.55390
 Alpha virt. eigenvalues --    3.55695   3.55971   3.56269   3.56445   3.57366
 Alpha virt. eigenvalues --    3.60312   3.61385   3.62730   3.63229   3.63933
 Alpha virt. eigenvalues --    3.64589   3.65282   3.65385   3.65921   3.66564
 Alpha virt. eigenvalues --    3.66649   3.66784   3.66956   3.68142   3.69001
 Alpha virt. eigenvalues --    3.69075   3.69565   3.70825   3.74031   3.79373
 Alpha virt. eigenvalues --    3.88210   3.95235   3.96957   3.97422   3.98044
 Alpha virt. eigenvalues --    3.98166   3.98561   3.98846   3.99184   3.99231
 Alpha virt. eigenvalues --    3.99484   4.01089   4.01239   4.01579   4.05948
 Alpha virt. eigenvalues --    4.14671   4.27637   4.28641   4.30730   4.31637
 Alpha virt. eigenvalues --    4.33878   4.34408   4.34620   4.39434   4.39952
 Alpha virt. eigenvalues --    4.43300   4.44802   4.48597   4.49134   4.50348
 Alpha virt. eigenvalues --    4.51113   4.51487   4.52347   4.52670   4.52915
 Alpha virt. eigenvalues --    4.53835   4.54861   4.55238   4.55372   4.55755
 Alpha virt. eigenvalues --    4.57461   4.66242   4.67261   4.68095   4.71409
 Alpha virt. eigenvalues --    4.72465   4.72820   4.73727   4.74553   4.74817
 Alpha virt. eigenvalues --    4.76048   4.76455   4.76778   4.77164   4.78627
 Alpha virt. eigenvalues --    4.78987   4.80612   4.81279   4.82147   4.82714
 Alpha virt. eigenvalues --    4.83238   4.85212   4.86053   4.86279   4.86997
 Alpha virt. eigenvalues --    4.87008   4.90233   4.90915   4.91598   4.91746
 Alpha virt. eigenvalues --    4.93503   4.94880   4.96779   4.97484   4.97891
 Alpha virt. eigenvalues --    5.00710   5.01572   5.03814   5.05161   5.05349
 Alpha virt. eigenvalues --    5.05582   5.09766   5.10299   5.12777   5.15685
 Alpha virt. eigenvalues --    5.19089   5.23730   5.24818   5.25950   5.27628
 Alpha virt. eigenvalues --    5.28874   5.29096   5.31418   5.31812   5.34823
 Alpha virt. eigenvalues --    5.38949   5.41968   5.43426   5.47289   5.48911
 Alpha virt. eigenvalues --    5.49475   5.49781   5.51173   5.54591   5.58623
 Alpha virt. eigenvalues --    5.59330   5.62225   5.63226   5.65933   5.67484
 Alpha virt. eigenvalues --    5.72206   5.92922   7.12027   7.23170   7.24824
 Alpha virt. eigenvalues --    7.29042  11.65686  11.69185  11.74058  11.76425
 Alpha virt. eigenvalues --   11.82957  11.86717  12.02454  12.05811  13.46393
 Alpha virt. eigenvalues --   13.89369  13.96449  14.03561
  Beta  occ. eigenvalues --  -66.16331 -66.16187 -66.15961 -66.15833 -19.13219
  Beta  occ. eigenvalues --  -19.12759 -19.12600 -19.12554 -10.18304 -10.16411
  Beta  occ. eigenvalues --  -10.16390 -10.16389 -10.16132 -10.16132 -10.16037
  Beta  occ. eigenvalues --  -10.16019  -5.30010  -5.29897  -5.29683  -5.29539
  Beta  occ. eigenvalues --   -3.66120  -3.66030  -3.65956  -3.65836  -3.65806
  Beta  occ. eigenvalues --   -3.65794  -3.65672  -3.65657  -3.65627  -3.65478
  Beta  occ. eigenvalues --   -3.65447  -3.65300  -1.00458  -0.98495  -0.98326
  Beta  occ. eigenvalues --   -0.96235  -0.71190  -0.70409  -0.70149  -0.69369
  Beta  occ. eigenvalues --   -0.68430  -0.68260  -0.68058  -0.65098  -0.57702
  Beta  occ. eigenvalues --   -0.54238  -0.54160  -0.48706  -0.42763  -0.42426
  Beta  occ. eigenvalues --   -0.41590  -0.41539  -0.41400  -0.41128  -0.40853
  Beta  occ. eigenvalues --   -0.40634  -0.40437  -0.40154  -0.39925  -0.39887
  Beta  occ. eigenvalues --   -0.39362  -0.39249  -0.39150  -0.39070  -0.38763
  Beta  occ. eigenvalues --   -0.37620  -0.37243  -0.37080  -0.36327  -0.36020
  Beta  occ. eigenvalues --   -0.34560  -0.34196  -0.33702  -0.32574  -0.31241
  Beta  occ. eigenvalues --   -0.30617  -0.28607  -0.28242  -0.27174
  Beta virt. eigenvalues --   -0.10411  -0.01460   0.00074   0.00326   0.00870
  Beta virt. eigenvalues --    0.01820   0.02534   0.02915   0.03853   0.04371
  Beta virt. eigenvalues --    0.04615   0.05248   0.05465   0.05656   0.06041
  Beta virt. eigenvalues --    0.06244   0.06534   0.07139   0.07257   0.07891
  Beta virt. eigenvalues --    0.07936   0.08287   0.08414   0.08548   0.08851
  Beta virt. eigenvalues --    0.09299   0.09339   0.09403   0.09549   0.09996
  Beta virt. eigenvalues --    0.10422   0.10512   0.11306   0.11414   0.11876
  Beta virt. eigenvalues --    0.12053   0.12324   0.12523   0.12631   0.12851
  Beta virt. eigenvalues --    0.13161   0.13698   0.14052   0.14590   0.14777
  Beta virt. eigenvalues --    0.15855   0.16146   0.16541   0.16779   0.17197
  Beta virt. eigenvalues --    0.17305   0.17427   0.17738   0.18293   0.18916
  Beta virt. eigenvalues --    0.19022   0.19469   0.19773   0.20005   0.20268
  Beta virt. eigenvalues --    0.20509   0.20611   0.21074   0.21176   0.21494
  Beta virt. eigenvalues --    0.21769   0.22835   0.23479   0.23625   0.23855
  Beta virt. eigenvalues --    0.24113   0.24235   0.24813   0.24901   0.25545
  Beta virt. eigenvalues --    0.25857   0.26154   0.27026   0.27075   0.28446
  Beta virt. eigenvalues --    0.29205   0.30455   0.31396   0.33325   0.33345
  Beta virt. eigenvalues --    0.33431   0.34830   0.34972   0.35079   0.35343
  Beta virt. eigenvalues --    0.35906   0.36656   0.37183   0.37239   0.37821
  Beta virt. eigenvalues --    0.38651   0.39282   0.39494   0.39661   0.40444
  Beta virt. eigenvalues --    0.40739   0.40994   0.42211   0.43156   0.45217
  Beta virt. eigenvalues --    0.46022   0.46379   0.46762   0.46998   0.47208
  Beta virt. eigenvalues --    0.47982   0.48195   0.48885   0.49300   0.49375
  Beta virt. eigenvalues --    0.52391   0.52574   0.52982   0.53314   0.53795
  Beta virt. eigenvalues --    0.54440   0.56325   0.56985   0.58559   0.60582
  Beta virt. eigenvalues --    0.61674   0.62105   0.62526   0.62621   0.63084
  Beta virt. eigenvalues --    0.63335   0.64511   0.66155   0.66423   0.67615
  Beta virt. eigenvalues --    0.67905   0.69206   0.70010   0.71158   0.71489
  Beta virt. eigenvalues --    0.72782   0.73308   0.73804   0.74504   0.75180
  Beta virt. eigenvalues --    0.75401   0.76561   0.76945   0.77363   0.77799
  Beta virt. eigenvalues --    0.78066   0.79373   0.79583   0.80861   0.80927
  Beta virt. eigenvalues --    0.81281   0.81437   0.81645   0.82061   0.82083
  Beta virt. eigenvalues --    0.82405   0.82932   0.83185   0.83599   0.83792
  Beta virt. eigenvalues --    0.84083   0.84662   0.85404   0.85633   0.86070
  Beta virt. eigenvalues --    0.86518   0.87221   0.87848   0.88395   0.88755
  Beta virt. eigenvalues --    0.90146   0.90407   0.90746   0.91140   0.92535
  Beta virt. eigenvalues --    0.92875   0.93664   0.93806   0.94590   0.95052
  Beta virt. eigenvalues --    0.95514   0.97232   0.98903   1.01242   1.01377
  Beta virt. eigenvalues --    1.02415   1.02749   1.03052   1.04341   1.05244
  Beta virt. eigenvalues --    1.06009   1.06525   1.06965   1.07987   1.08868
  Beta virt. eigenvalues --    1.09590   1.10522   1.12727   1.13754   1.14700
  Beta virt. eigenvalues --    1.15236   1.17507   1.17795   1.19183   1.20064
  Beta virt. eigenvalues --    1.22469   1.22882   1.23043   1.24767   1.25045
  Beta virt. eigenvalues --    1.26147   1.27424   1.27906   1.28309   1.31245
  Beta virt. eigenvalues --    1.32456   1.33136   1.33798   1.35455   1.35915
  Beta virt. eigenvalues --    1.37538   1.37866   1.38326   1.38890   1.39009
  Beta virt. eigenvalues --    1.40783   1.41641   1.42135   1.42795   1.44019
  Beta virt. eigenvalues --    1.44792   1.45129   1.46146   1.46603   1.47231
  Beta virt. eigenvalues --    1.47806   1.48752   1.50174   1.50602   1.50783
  Beta virt. eigenvalues --    1.52262   1.52465   1.53251   1.54416   1.56157
  Beta virt. eigenvalues --    1.56523   1.57077   1.57552   1.57815   1.59325
  Beta virt. eigenvalues --    1.60323   1.61322   1.61694   1.62341   1.63739
  Beta virt. eigenvalues --    1.64307   1.64348   1.64627   1.65272   1.67307
  Beta virt. eigenvalues --    1.69351   1.69835   1.70897   1.71840   1.72344
  Beta virt. eigenvalues --    1.74363   1.75341   1.76072   1.77028   1.78456
  Beta virt. eigenvalues --    1.78955   1.80382   1.82636   1.83905   1.84594
  Beta virt. eigenvalues --    1.86554   1.88801   1.89696   1.90189   1.91528
  Beta virt. eigenvalues --    1.92213   1.92411   1.92783   1.94199   1.94640
  Beta virt. eigenvalues --    1.94789   1.95262   1.95422   1.95722   1.96323
  Beta virt. eigenvalues --    1.96420   1.97117   1.97288   1.98332   1.98744
  Beta virt. eigenvalues --    1.99280   1.99837   2.00248   2.00809   2.02315
  Beta virt. eigenvalues --    2.03526   2.04361   2.07514   2.08584   2.11107
  Beta virt. eigenvalues --    2.11271   2.12333   2.13834   2.14985   2.15275
  Beta virt. eigenvalues --    2.16057   2.18402   2.19396   2.20083   2.22463
  Beta virt. eigenvalues --    2.24526   2.27355   2.33344   2.34182   2.37669
  Beta virt. eigenvalues --    2.38950   2.40597   2.40914   2.41244   2.44142
  Beta virt. eigenvalues --    2.45210   2.46600   2.47403   2.47602   2.48830
  Beta virt. eigenvalues --    2.48972   2.49321   2.49902   2.50783   2.52406
  Beta virt. eigenvalues --    2.52780   2.54346   2.54672   2.55477   2.56045
  Beta virt. eigenvalues --    2.57077   2.59007   2.59690   2.64861   2.66201
  Beta virt. eigenvalues --    2.72374   2.74486   2.76726   2.78565   2.79370
  Beta virt. eigenvalues --    2.80709   2.81073   2.83184   2.84941   2.86058
  Beta virt. eigenvalues --    2.86994   2.88052   2.88649   2.88963   2.89636
  Beta virt. eigenvalues --    2.90177   2.90691   2.91283   2.91419   2.92029
  Beta virt. eigenvalues --    2.94541   2.96770   2.97975   2.98836   2.99242
  Beta virt. eigenvalues --    2.99296   2.99432   2.99544   2.99731   3.00066
  Beta virt. eigenvalues --    3.00196   3.00227   3.00742   3.00913   3.01393
  Beta virt. eigenvalues --    3.01694   3.02025   3.02234   3.03037   3.05271
  Beta virt. eigenvalues --    3.06995   3.09224   3.13016   3.20118   3.23465
  Beta virt. eigenvalues --    3.27503   3.30607   3.34206   3.37983   3.38518
  Beta virt. eigenvalues --    3.39251   3.42110   3.43687   3.44772   3.46321
  Beta virt. eigenvalues --    3.47797   3.48683   3.52240   3.53484   3.53807
  Beta virt. eigenvalues --    3.55426   3.55945   3.55992   3.56278   3.56636
  Beta virt. eigenvalues --    3.57519   3.60376   3.61950   3.63086   3.63309
  Beta virt. eigenvalues --    3.64253   3.64615   3.65307   3.65476   3.66179
  Beta virt. eigenvalues --    3.66575   3.66709   3.66788   3.66958   3.68213
  Beta virt. eigenvalues --    3.69008   3.69077   3.69578   3.71031   3.74049
  Beta virt. eigenvalues --    3.79558   3.90171   3.95276   3.96969   3.97429
  Beta virt. eigenvalues --    3.98050   3.98181   3.98581   3.98862   3.99205
  Beta virt. eigenvalues --    3.99316   3.99503   4.01097   4.01247   4.01636
  Beta virt. eigenvalues --    4.06027   4.14962   4.27807   4.31017   4.31174
  Beta virt. eigenvalues --    4.32085   4.33988   4.34771   4.35836   4.39972
  Beta virt. eigenvalues --    4.40388   4.43549   4.44972   4.49059   4.50544
  Beta virt. eigenvalues --    4.51135   4.52228   4.52449   4.52829   4.53057
  Beta virt. eigenvalues --    4.53922   4.54621   4.54908   4.55276   4.55422
  Beta virt. eigenvalues --    4.56465   4.57661   4.66343   4.67424   4.68469
  Beta virt. eigenvalues --    4.71494   4.72932   4.73023   4.73888   4.74707
  Beta virt. eigenvalues --    4.75198   4.76150   4.76610   4.76892   4.78583
  Beta virt. eigenvalues --    4.78746   4.79196   4.81186   4.81446   4.82638
  Beta virt. eigenvalues --    4.82791   4.83899   4.86050   4.86258   4.87002
  Beta virt. eigenvalues --    4.87019   4.88088   4.90396   4.91028   4.91661
  Beta virt. eigenvalues --    4.91795   4.93751   4.95192   4.96967   4.97546
  Beta virt. eigenvalues --    4.98623   5.01192   5.01608   5.03900   5.05274
  Beta virt. eigenvalues --    5.05475   5.05762   5.09828   5.10412   5.12842
  Beta virt. eigenvalues --    5.15819   5.19208   5.23781   5.25003   5.25995
  Beta virt. eigenvalues --    5.27682   5.28905   5.29161   5.31491   5.31844
  Beta virt. eigenvalues --    5.34887   5.39002   5.42008   5.43524   5.47331
  Beta virt. eigenvalues --    5.48944   5.49509   5.49830   5.51198   5.54764
  Beta virt. eigenvalues --    5.58691   5.59365   5.62257   5.63304   5.65969
  Beta virt. eigenvalues --    5.67496   5.72219   5.92936   7.12110   7.23238
  Beta virt. eigenvalues --    7.24869   7.29098  11.67501  11.69189  11.74081
  Beta virt. eigenvalues --   11.76539  11.83478  11.86809  12.02457  12.05832
  Beta virt. eigenvalues --   13.46435  13.89408  13.96481  14.03598
          Condensed to atoms (all electrons):
               1          2          3          4          5          6
     1  O    7.842740   0.100259  -0.005059   0.086875  -0.164042   0.015048
     2  O    0.100259   7.838803   0.076016  -0.008171   0.018166  -0.156752
     3  O   -0.005059   0.076016   7.833541   0.080240   0.038852  -0.124731
     4  O    0.086875  -0.008171   0.080240   7.793918  -0.140247   0.079841
     5  Si  -0.164042   0.018166   0.038852  -0.140247  15.900810   0.250689
     6  Si   0.015048  -0.156752  -0.124731   0.079841   0.250689  15.929821
     7  Si  -0.074117  -0.074851  -0.015408  -0.018312  -1.117046  -1.083779
     8  Si   0.000500   0.009966  -0.070636  -0.130485  -0.872121  -1.004555
     9  C    0.004725  -0.002038   0.004241  -0.005450   0.079940  -0.013814
    10  H   -0.004682  -0.000017   0.000038   0.002888  -0.046604  -0.000183
    11  H   -0.000703  -0.000152   0.000089  -0.002858  -0.040388   0.000278
    12  C   -0.003717   0.005302  -0.004565   0.002307   0.117837  -0.024493
    13  H    0.002544   0.000032  -0.000013  -0.004226  -0.044988  -0.000485
    14  H   -0.007461   0.000065   0.000009   0.002212  -0.038046   0.000412
    15  H   -0.001731  -0.000051  -0.000169  -0.000274  -0.046652  -0.002439
    16  C   -0.002260  -0.002293  -0.002821   0.008179   0.061348   0.140798
    17  H   -0.000070   0.000089   0.001625  -0.002532   0.003972  -0.004608
    18  H   -0.000113   0.000585  -0.005954   0.001632   0.015363   0.002589
    19  C    0.001265   0.000942   0.016586   0.021822   0.001058   0.003916
    20  H   -0.000007   0.000015   0.002603  -0.003847  -0.001725  -0.000812
    21  H    0.000013  -0.000006  -0.002491   0.002026  -0.000895  -0.001717
    22  H   -0.000048  -0.000061   0.001619   0.003766   0.000394   0.002103
    23  C    0.005369  -0.001077   0.003652  -0.006384  -0.020191   0.102866
    24  H    0.000065  -0.007405   0.002304   0.000008   0.000394  -0.039805
    25  H    0.000032   0.002381  -0.005274  -0.000024  -0.000510  -0.042519
    26  H   -0.000045  -0.001694   0.000046  -0.000162  -0.002265  -0.046030
    27  C   -0.001452   0.006801  -0.006789   0.002524  -0.016090   0.068355
    28  H    0.000014   0.001860  -0.007002   0.000068   0.001492  -0.033873
    29  H   -0.000017  -0.004472   0.002291   0.000037  -0.000293  -0.046888
    30  H   -0.000154  -0.000438  -0.002724   0.000079   0.000328  -0.040478
    31  C    0.011551   0.010294   0.003606   0.003462   0.044967   0.043039
    32  H    0.003774   0.003658  -0.000068  -0.000067  -0.001802  -0.001941
    33  H   -0.005817   0.002536   0.000017   0.000000  -0.002416  -0.001799
    34  H    0.002447  -0.005897  -0.000000   0.000017  -0.001907  -0.002365
    35  C   -0.012010  -0.011860  -0.000017  -0.000041   0.094817   0.088840
    36  H    0.001900  -0.005627  -0.000083   0.000030   0.001242   0.011905
    37  H   -0.005542   0.001954   0.000030  -0.000078   0.011932   0.001300
    38  H   -0.003479  -0.003382   0.000249   0.000197   0.009092   0.008570
    39  H    0.001974   0.000014   0.000065  -0.007505  -0.033133   0.001475
               7          8          9         10         11         12
     1  O   -0.074117   0.000500   0.004725  -0.004682  -0.000703  -0.003717
     2  O   -0.074851   0.009966  -0.002038  -0.000017  -0.000152   0.005302
     3  O   -0.015408  -0.070636   0.004241   0.000038   0.000089  -0.004565
     4  O   -0.018312  -0.130485  -0.005450   0.002888  -0.002858   0.002307
     5  Si  -1.117046  -0.872121   0.079940  -0.046604  -0.040388   0.117837
     6  Si  -1.083779  -1.004555  -0.013814  -0.000183   0.000278  -0.024493
     7  Si  16.033014   0.262623   0.117855   0.002783   0.003463   0.016090
[...]
 0.00245252,0.00398712,-0.00133112,-0.00019955,-0.04910779,-0.02360421,
 0.00000461,0.00102809,-0.00010873,-0.00026948,-0.00031448,0.00016174,0
 .00008791,0.00001575,0.00003084,-0.00003651,0.00009333,-0.00010091,-0.
 00052854,-0.00069794,0.00005545,-0.00015083,-0.00008016,-0.00025178,-0
 .00000819,0.00003869,0.00006246,0.00007149,-0.00000198,0.00006738,-0.0
 0000089,-0.00017208,-0.00002038,-0.00001647,0.00001859,-0.00001497,0.0
 0001626,0.00001869,-0.00001505,-0.00000033,-0.00014659,0.00004712,-0.0
 0001358,-0.00000635,0.00001846,0.00001382,-0.00000616,0.00001811,0.000
 00018,0.00000479,0.00001036,0.00052858,-0.00070390,0.00004544,0.000009
 45,0.00003875,0.00006275,0.00014646,-0.00008096,-0.00025600,-0.0000704
 7,-0.00000196,0.00006862,0.00027215,-0.00031570,0.00015605,0.00008245,
 -0.00003967,0.00004471,-0.00008646,0.00001590,0.00003160,0.00003319,0.
 00009272,-0.00010015,0.00011285,0.00730262,0.01462548,0.00001842,-0.00
 367840,0.00324564,0.00021110,0.00066783,-0.00118299,-0.00022704,0.0006
 6503,-0.00117627,-0.00026080,0.49737178,-0.00121997,-0.00293870,0.0005
 7809,0.00130746,-0.00313272,0.00033498,-0.00002982,-0.00073497,0.00018
 645,0.00000345,-0.00070195,0.00018274,0.00173887,0.00207033,-0.0009417
 3,-0.00178223,0.00216940,-0.00093273,-0.00086899,-0.02728135,-0.147593
 64,0.00002410,0.00072732,-0.00014173,-0.00036053,-0.00016771,0.0001747
 8,-0.00000249,0.00000340,-0.00005775,0.00006046,-0.00007578,-0.0000118
 8,-0.00024941,-0.00023199,0.00013020,-0.00005323,-0.00003767,-0.000082
 08,0.00003598,0.00001733,0.00000351,0.00003368,0.00004827,0.00006333,-
 0.00000259,-0.00014153,0.00003403,-0.00000560,0.00002397,-0.00001308,0
 .00000528,0.00002500,-0.00001184,-0.00000235,-0.00010621,0.00006931,-0
 .00000839,-0.00001134,0.00000653,0.00000816,-0.00001001,0.00000553,0.0
 0000042,0.00000953,0.00000517,0.00026049,-0.00024865,0.00012676,-0.000
 03666,0.00001811,0.00000557,0.00005517,-0.00003952,-0.00008796,-0.0000
 3317,0.00004900,0.00006459,0.00036572,-0.00017685,0.00017238,0.0000816
 5,0.00001035,0.00008684,0.00000086,0.00000328,-0.00005870,-0.00006280,
 -0.00007362,-0.00001366,-0.00009716,-0.00444305,-0.00681810,-0.0000072
 7,0.00224617,-0.00107569,-0.00023560,0.00003485,0.00003197,0.00023758,
 0.00002052,0.00004227,-0.00088181,-0.03151459,0.39669094,0.00083668,-0
 .00017810,0.00013401,0.00027823,-0.00008813,-0.00019405,0.00006286,0.0
 0001261,-0.00000188,0.00016779,-0.00020415,0.00000379,0.00005533,0.000
 51336,0.00015017,-0.00004735,0.00001530,0.00001196,-0.00208344,0.00076
 961,0.00128588,-0.00017060,0.00010755,0.00000645,-0.00002428,-0.000105
 41,0.00003471,0.00005005,0.00000832,0.00001255,0.00000770,0.00006681,-
 0.00008092,0.00000830,-0.00003920,-0.00003177,-0.00000777,-0.00000089,
 -0.00000579,0.00000197,0.00000423,0.00001014,0.00000209,-0.00000272,-0
 .00001202,0.00001909,-0.00002175,-0.00000387,-0.00000148,0.00000604,0.
 00000234,0.00000266,-0.00000121,-0.00000756,0.00002197,-0.00001792,0.0
 0000727,-0.00000143,0.00000432,-0.00000200,0.00000403,-0.00000702,0.00
 000323,-0.00000426,0.00000402,-0.00000301,0.00002341,-0.00002398,-0.00
 000662,0.00000156,0.00000450,0.00000117,0.00000707,-0.00000447,-0.0000
 0607,-0.00000273,0.00000046,0.00000534,0.00003748,-0.00001497,-0.00000
 569,0.00000503,-0.00000967,0.00000041,-0.00001485,0.00001060,0.0000090
 0,-0.00001914,0.00001998,-0.00000533,-0.00008185,-0.00002064,-0.000287
 25,0.00010113,0.00014056,-0.00009527,-0.00004136,-0.00008567,0.0000155
 9,0.00023663,0.00010261,-0.00006718,-0.21476283,-0.11659456,-0.0455279
 3,0.23544732,-0.00100694,-0.00009152,-0.00169385,0.00137429,0.00041002
 ,0.00015264,0.00050030,0.00028300,-0.00005752,0.00023516,-0.00040842,-
 0.00011201,0.00057523,0.00088364,0.00009356,-0.00065195,-0.00056648,-0
 .00038276,-0.00498610,-0.00477323,0.00141620,-0.00057774,0.00020574,0.
 00010173,-0.00006611,-0.00003845,0.00006976,-0.00004451,-0.00000641,-0
 .00003356,0.00007811,-0.00001677,-0.00006473,-0.00008404,-0.00014127,0
 .00000174,-0.00002972,-0.00001906,-0.00004313,0.00000743,0.00000880,0.
 00001137,0.00000920,0.00000546,0.00000130,0.00006699,-0.00001614,-0.00
 000864,0.00000104,0.00001169,0.00001294,0.00000319,-0.00001263,-0.0000
 2072,0.00006791,-0.00002090,0.00000996,0.00000304,0.00001011,-0.000009
 39,0.00000501,-0.00002609,0.00000600,-0.00001470,0.00001456,-0.0000136
 8,0.00009350,0.00004336,0.00008046,0.00000921,-0.00000254,-0.00002562,
 -0.00000310,-0.00000334,-0.00000986,-0.00001122,0.00001173,0.00004781,
 0.00004600,0.00022073,-0.00002608,-0.00004475,0.00006497,0.00008096,0.
 00010081,-0.00001400,-0.00003925,0.00000338,-0.00016507,0.00016344,0.0
 0019292,-0.00009179,-0.00010290,0.00005184,-0.00002071,-0.00003490,0.0
 0005969,-0.00000665,0.00010698,0.00004213,0.00019974,0.00006367,-0.119
 93024,-0.12172693,-0.02969178,0.12947343,0.12979449,-0.00322058,-0.004
 31018,-0.00482179,0.00124291,0.00178799,0.00064905,0.00036056,0.000362
 89,-0.00005443,0.00035646,-0.00064935,0.00021875,0.00137263,0.00234327
 ,-0.00113972,0.00014583,-0.00089205,0.00012340,-0.01781688,-0.01038428
 ,0.00007645,-0.00065443,0.00012252,-0.00002926,-0.00014323,-0.00012392
 ,0.00004768,0.00002861,-0.00000473,-0.00001537,-0.00002920,-0.00002711
 ,0.00006771,-0.00033836,-0.00041297,0.00010013,-0.00010041,-0.00004985
 ,-0.00015066,0.00001288,0.00001597,0.00002969,0.00003880,0.00001630,0.
 00004853,0.00006825,-0.00002051,-0.00000039,0.00000119,0.00001753,0.00
 001643,0.00000489,-0.00001213,-0.00001877,0.00007213,-0.00001396,0.000
 00151,0.00000226,0.00001635,-0.00001233,0.00000461,-0.00001667,0.00001
 942,-0.00000078,-0.00000403,0.00000618,-0.00005441,0.00008633,-0.00001
 016,0.00001988,-0.00000474,-0.00001981,-0.00002265,0.00001304,0.000024
 42,0.00000272,-0.00000385,0.00000410,-0.00010071,0.00010012,-0.0000067
 2,-0.00001261,0.00003202,-0.00002085,0.00008903,-0.00000641,0.00000629
 ,0.00001096,-0.00000720,0.00003595,0.00130281,0.00109780,0.00084111,0.
 00030949,-0.00023902,0.00031068,0.00006255,-0.00023431,0.00016583,0.00
 010523,0.00062980,-0.00075261,-0.05783454,-0.03724705,-0.05051912,0.05
 093190,0.03264903,0.05110882,0.00026021,0.00011666,0.00020042,0.000884
 12,0.00011152,-0.00022380,0.00016189,0.00019256,-0.00000352,0.00005587
 ,-0.00000643,0.,-0.00004834,-0.00003046,-0.00001051,0.00003084,-0.0004
 7563,-0.00016648,-0.00182339,-0.00093470,-0.00125568,-0.00015936,-0.00
 010455,-0.00000399,0.00003956,0.00001701,0.00000494,-0.00001685,-0.000
 01076,-0.00000878,-0.00001954,-0.00002071,0.00000696,0.00002416,0.0000
 2526,0.00000622,0.00000756,0.00000462,0.00000624,0.00000120,-0.0000045
 7,-0.00000154,-0.00000284,-0.00000049,-0.00000509,0.00001797,0.0000213
 0,0.00000355,0.00000270,0.00000098,0.00000716,-0.00000155,-0.00000572,
 -0.00000202,0.00002060,0.00001757,-0.00000758,0.00000391,0.00000668,-0
 .00000298,-0.00000145,-0.00000403,0.00000181,-0.00000417,-0.00000405,0
 .00000315,0.00001392,0.00003260,0.00003266,0.00000154,-0.00000397,-0.0
 0000962,-0.00000619,0.00000011,0.00000362,0.00000177,0.00000292,0.0000
 1258,-0.00002227,0.00010282,-0.00003296,-0.00002277,0.00003380,0.00002
 883,0.00004898,-0.00000849,-0.00001353,0.00000941,-0.00006682,0.000080
 82,-0.00009750,0.00003765,0.00030143,0.00009744,-0.00014458,0.00009847
 ,0.00023549,-0.00009334,0.00005225,-0.00004235,0.00008225,-0.00001225,
 -0.21255180,0.11625459,0.04790345,-0.02020415,0.01497637,0.00675847,0.
 23319686,-0.00137259,0.00041297,0.00017222,0.00098003,-0.00009670,-0.0
 0170919,-0.00023916,-0.00040816,-0.00010803,-0.00050168,0.00028546,-0.
 00004900,0.00064801,-0.00056964,-0.00039664,-0.00056958,0.00088839,0.0
 0010311,0.00499806,-0.00478293,0.00134605,0.00058089,0.00020373,0.0000
 9219,-0.00004588,0.00022310,-0.00002603,-0.00010264,-0.00001387,-0.000
 03798,-0.00000055,-0.00016683,0.00016575,-0.00009274,0.00004363,0.0000
 8275,0.00000280,-0.00000342,-0.00001012,-0.00000970,-0.00000252,-0.000
 02556,0.00001222,0.00001179,0.00004788,-0.00006729,-0.00001585,-0.0000
 0753,-0.00000358,-0.00001266,-0.00002069,-0.00000078,0.00001171,0.0000
 1299,-0.00006788,-0.00002066,0.00001112,-0.00000500,-0.00002612,0.0000
 0610,-0.00000318,0.00001013,-0.00000937,0.00001452,0.00001454,-0.00001
 397,0.00008366,-0.00014208,0.00000017,-0.00000724,0.00000883,0.0000115
 9,0.00002888,-0.00001920,-0.00004386,-0.00000918,0.00000547,0.00000143
 ,0.00006723,-0.00003932,0.00006809,0.00005088,0.00000753,0.00000055,0.
 00004322,-0.00000647,-0.00003406,-0.00007884,-0.00001594,-0.00006305,-
 0.00019433,-0.00009171,-0.00010118,-0.00005259,-0.00002005,-0.00003445
 ,-0.00004131,0.00019994,0.00006437,-0.00005789,-0.00000664,0.00010796,
 0.11970389,-0.12233964,-0.03162284,-0.01482674,0.00993598,0.00479412,-
 0.12923521,0.13046435,-0.00123304,0.00178938,0.00066454,0.00312465,-0.
 00432356,-0.00486698,-0.00035855,-0.00065153,0.00022422,-0.00036096,0.
 00036437,-0.00004849,-0.00014639,-0.00089187,0.00012602,-0.00137894,0.
 00235641,-0.00110973,0.01781477,-0.01041297,-0.00017115,0.00065715,0.0
 0012165,-0.00004012,0.00010128,0.00009961,-0.00000880,-0.00008936,-0.0
 0000599,0.00000811,-0.00001058,-0.00000694,0.00003662,0.00005394,0.000
 08525,-0.00001117,0.00002297,0.00001287,0.00002372,-0.00002025,-0.0000
 0458,-0.00001944,-0.00000264,-0.00000384,0.00000418,-0.00006866,-0.000
 02056,0.00000068,-0.00000529,-0.00001214,-0.00001880,-0.00000082,0.000
 01763,0.00001650,-0.00007252,-0.00001403,0.00000283,-0.00000439,-0.000
 01676,0.00001955,-0.00000240,0.00001644,-0.00001232,0.00000094,-0.0000
 0398,0.00000612,0.00033825,-0.00041597,0.00009293,-0.00001235,0.000016
 11,0.00003024,0.00009752,-0.00005022,-0.00015293,-0.00003784,0.0000162
 4,0.00004872,0.00014385,-0.00012669,0.00004561,0.00003373,0.00000935,0
 .00008756,-0.00002964,-0.00000440,-0.00001466,0.00003002,-0.00002592,0
 .00006524,-0.00128574,0.00110069,0.00085493,-0.00030707,-0.00023560,0.
 00031350,-0.00011836,0.00063145,-0.00075186,-0.00006012,-0.00023552,0.
 00016720,0.06018991,-0.03915796,-0.05212106,-0.00644000,0.00458590,0.0
 0004170,-0.05360225,0.03473970,0.05268929,-0.00040644,-0.00043322,0.00
 031555,-0.00041222,0.00040810,-0.00027423,-0.00036664,-0.00026013,-0.0
 0013657,-0.00036081,0.00026559,0.00014914,0.00030915,-0.00015489,-0.00
 068723,0.00033138,0.00015009,0.00066622,-0.00196663,0.00016893,-0.0000
 7044,0.00060015,-0.00000667,-0.00000731,-0.00005026,0.00006522,-0.0000
 7552,0.00004606,0.00000446,0.00002563,-0.00012434,-0.00007318,0.000151
 13,-0.00007801,0.00002197,0.00008759,-0.00000049,-0.00000361,-0.000013
 44,-0.00000013,-0.00000269,-0.00000917,0.00001077,0.00000826,0.0000387
 6,-0.00007414,0.00000072,0.00000099,-0.00000163,-0.00001129,-0.0000177
 1,-0.00000142,0.00001135,0.00001798,-0.00007312,0.00000084,0.00000044,
 -0.00000455,-0.00002103,0.00000328,-0.00000465,0.00002132,-0.00000323,
 0.00002683,-0.00000042,0.00000010,-0.00007977,-0.00002123,-0.00008446,
 -0.00000039,0.00000256,0.00000922,-0.00000028,0.00000364,0.00001355,0.
 00001009,-0.00000795,-0.00003866,-0.00005024,-0.00006478,0.00007433,0.
 00006782,-0.00001789,-0.00008068,0.00004409,-0.00000459,-0.00002597,-0
 .00012426,0.00007275,-0.00014559,0.00036709,-0.00001996,-0.00003854,0.
 00032092,0.00001077,-0.00001091,0.00010049,-0.00023524,0.00023328,0.00
 010046,0.00023193,-0.00023025,-0.04110971,0.00086056,-0.00057785,0.000
 11323,-0.02047408,0.01705525,-0.00009683,0.02032457,-0.01697296,0.0428
 6755,0.00084394,0.00055759,0.00081240,-0.00083027,0.00055962,0.0008282
 5,-0.00007179,0.00007599,0.00003288,0.00007502,0.00007708,0.00003358,-
 0.00046292,-0.00028220,0.00020244,0.00046273,-0.00028476,0.00019155,-0
 .00002737,0.00353098,-0.00463410,-0.00000212,-0.00022351,-0.00007398,0
 .00006222,-0.00005231,0.00001831,-0.00000575,0.00000252,0.00000384,0.0
 0000092,0.00004748,-0.00006343,0.00008634,0.00004889,-0.00002630,0.000
 01482,0.00001261,0.00002397,-0.00000050,-0.00000260,0.00000100,-0.0000
 1110,-0.00000439,-0.00002190,0.00000021,0.00002797,0.00000257,0.000001
 67,-0.00000178,0.00000346,-0.00000161,-0.00000182,0.00000342,0.0000000
 4,0.00003088,-0.00001539,0.00000204,0.00000824,0.00000154,-0.00000197,
 0.00000816,0.00000159,-0.00000005,-0.00002206,0.00000994,-0.00008618,0
 .00004948,-0.00002433,0.00000051,-0.00000261,0.00000093,-0.00001433,0.
 00001263,0.00002423,0.00001063,-0.00000437,-0.00002189,-0.00006217,-0.
 00005075,0.00001928,0.00001707,-0.00000505,-0.00004363,0.00000575,0.00
 000239,0.00000370,-0.00000208,0.00004710,-0.00006263,-0.00001243,-0.00
 014479,-0.00158717,-0.00000257,0.00040381,-0.00036182,-0.00006811,-0.0
 0002253,-0.00002077,0.00006747,-0.00002324,-0.00002126,0.00074538,-0.2
 0590796,0.12589474,0.00101670,-0.01394356,0.01056897,-0.00089310,-0.01
 399257,0.01062601,-0.00083871,0.22947457,0.00012279,-0.00174375,0.0021
 9258,-0.00008993,-0.00174764,0.00220155,-0.00017577,0.00021103,0.00038
 407,0.00018830,0.00020895,0.00038123,-0.00078081,-0.00016794,-0.000806
 88,0.00076163,-0.00017291,-0.00082751,-0.00003674,0.02141806,-0.010523
 28,-0.00000760,-0.00066571,-0.00031157,0.00010611,-0.00000790,-0.00006
 059,0.00006991,-0.00000062,0.00001218,-0.00012016,0.00000337,0.0001706
 5,0.00004159,0.00001192,0.00007474,0.00000380,0.00000369,0.00001163,0.
 00002894,-0.00000564,0.00000775,-0.00000807,0.00001876,0.00000527,0.00
 000098,0.00006336,0.00004834,0.00000826,0.00000551,0.00001396,-0.00000
 799,0.00000539,0.00001388,0.00000046,0.00008088,-0.00001811,0.00000673
 ,0.00001869,-0.00000036,-0.00000661,0.00001842,-0.00000023,0.00000012,
 -0.00003533,0.00004429,-0.00003939,0.00001247,0.00007649,-0.00002887,-
 0.00000555,0.00000813,-0.00000359,0.00000364,0.00001168,0.00000817,0.0
 0001889,0.00000559,-0.00010571,-0.00000671,-0.00005937,-0.00005874,0.0
 0000302,0.00004393,-0.00006998,-0.00000034,0.00001363,0.00012355,0.000
 00157,0.00016922,-0.00004029,-0.00259277,-0.00452952,-0.00000837,0.001
 43420,-0.00106957,-0.00017128,-0.00019527,0.00031824,0.00017402,-0.000
 19897,0.00031880,-0.00055780,0.14117083,-0.13860319,0.00018572,-0.0072
 8644,0.00353914,-0.00014976,-0.00759556,0.00379883,0.00057740,-0.14228
 615,0.14290239,-0.00354886,-0.00162494,0.00292118,-0.00072613,0.000430
 87,-0.00000545,0.00042492,0.00043085,-0.00005930,0.00126567,0.00150812
 ,-0.00035844,-0.00745467,-0.01303861,-0.00220602,0.00015704,-0.0007452
 2,0.00009007,0.00178394,0.00089212,0.00045788,-0.00068290,-0.00005339,
 0.00015078,-0.13509318,-0.13264214,0.01824303,0.01176681,0.01620023,-0
 .00249834,-0.00935485,-0.01052456,0.00343792,0.00048497,0.00071902,-0.
 00023796,0.00029848,0.00017800,0.00042018,-0.00002392,0.00003464,-0.00
 022094,-0.00006449,0.00015392,-0.00018640,0.00004136,0.00002239,-0.000
 04762,-0.00000350,0.00000334,0.00002854,0.00000971,-0.00001860,-0.0000
 0839,0.00007768,-0.00003286,-0.00003657,-0.00000684,0.00008715,-0.0000
 0245,0.00003695,-0.00000829,-0.00000393,-0.00004303,-0.00000371,-0.000
 01730,-0.00001666,0.00008566,-0.00000234,0.00001480,-0.00000067,-0.000
 01601,-0.00001956,0.00001019,0.00001837,0.00000293,-0.00001126,0.00000
 139,-0.00002551,0.00009014,-0.00001967,-0.00002784,0.00000413,-0.00001
 561,0.00001800,0.00000433,0.00001071,0.00000858,-0.00000990,0.00001129
 ,-0.00020343,-0.00017393,-0.00003249,0.00000313,0.00002782,-0.00001188
 ,0.00000295,-0.00000188,-0.00001204,-0.00000330,-0.00008627,0.00004149
 ,-0.00021615,-0.00008126,-0.00007693,-0.00002407,-0.00005100,-0.000031
 49,0.00000536,0.00004669,0.00001211,0.00007084,-0.00001833,0.00005897,
 0.14106476,0.00103142,0.00109459,-0.00083118,-0.00007555,0.00006005,0.
 00004285,-0.00006031,0.00000644,0.00000150,-0.00046841,0.00016398,0.00
 007694,0.00272957,0.00089800,-0.00047514,0.00008805,-0.00004648,-0.000
 01111,0.00016806,-0.00005796,-0.00025559,0.00004233,-0.00004795,0.0000
 2791,-0.12293040,-0.20834113,0.02793480,-0.01564977,-0.01931988,0.0032
 2272,-0.00266202,-0.00495397,0.00116527,-0.00043507,-0.00024603,0.0003
 7019,0.00004057,0.00019945,-0.00012503,-0.00003667,-0.00004638,0.00000
 093,0.00010149,0.00009137,0.00021209,-0.00002471,0.00003790,0.00000582
 ,0.00000248,-0.00000590,-0.00000150,-0.00000286,0.00000230,0.00001050,
 -0.00001009,0.00002865,-0.00000801,0.00000564,-0.00000975,0.00000453,-
 0.00000665,0.00000333,-0.00000345,0.00000040,-0.00000644,0.00000157,-0
 .00001345,0.00000679,0.00000698,-0.00000027,-0.00000194,0.00000007,-0.
 00000230,0.00000304,0.00000189,0.00000214,-0.00000072,-0.00000328,-0.0
 0001420,0.00000476,-0.00000357,-0.00000400,0.00000275,-0.00000036,0.00
 000016,-0.00000186,-0.00000040,0.00000470,-0.00000205,0.00000525,0.000
 02101,0.00002498,0.00004059,-0.00000253,-0.00000756,0.00001385,0.00000
 197,0.00002777,-0.00001326,-0.00001014,0.00001569,-0.00000435,-0.00002
 223,-0.00003959,0.00001129,-0.00003383,0.00000797,0.00001028,0.0000103
 4,0.00006541,0.00003195,0.00001791,-0.00000514,0.00000253,0.13819720,0
 .23039552,0.00504125,0.00177352,-0.00203738,0.00067974,-0.00025419,0.0
 0010558,-0.00028875,-0.00023191,0.00001410,-0.00136488,-0.00046799,0.0
 0012878,0.00634757,0.01414827,-0.00035852,-0.00011758,0.00051628,-0.00
 007205,-0.00152961,-0.00102451,-0.00101492,0.00049902,-0.00019243,0.00
 012647,0.02380218,0.03745837,-0.04389897,0.00434646,0.00429983,-0.0026
 1589,-0.01667154,-0.02332325,0.00409549,-0.00123155,-0.00097759,0.0004
 2836,-0.00013729,-0.00030319,-0.00080786,0.00015686,0.00002089,0.00020
 262,0.00003550,-0.00020838,0.00037062,-0.00004578,0.00003544,-0.000004
 02,0.00000473,-0.00002358,-0.00002515,-0.00001108,0.00000585,0.0000093
 0,-0.00002069,0.00002110,-0.00003027,0.00000006,-0.00000887,0.00002803
 ,-0.00000270,0.00000807,-0.00001525,-0.00001896,-0.00000689,-0.0000132
 2,0.00001533,-0.00005643,0.00000019,-0.00000996,0.00000016,0.00000979,
 0.00001214,-0.00000665,-0.00001253,-0.00000217,0.00000709,-0.00000140,
 0.00002171,-0.00006439,0.00000945,0.00001642,-0.00000052,0.00001673,-0
 .00001171,-0.00000251,-0.00000863,-0.00000201,0.00000135,-0.00000203,0
 .00018626,0.00020083,0.00011662,-0.00000140,-0.00004130,0.00003010,-0.
 00000543,-0.00000410,0.00000248,0.00000843,0.00008362,-0.00005105,0.00
 004304,0.00004556,0.00008797,-0.00002741,0.00000135,0.00008906,-0.0000
 0072,0.00008097,-0.00002131,0.00008086,-0.00004386,0.00004202,-0.01979
 633,-0.03146606,0.04507669\\0.00000607,-0.00000616,-0.00000536,-0.0000
 0696,-0.00000238,0.00000129,0.00000190,0.00000092,0.00000549,-0.000000
 90,0.00000387,-0.00000131,0.00000519,0.00001209,0.00000524,0.00000416,
 0.00000853,-0.00000374,-0.00000402,-0.00000998,0.00000165,-0.00000464,
 -0.00000940,-0.00000297,-0.00000180,-0.00000021,-0.00000156,0.00000015
 ,-0.00000005,0.00000041,0.00000062,0.,-0.00000010,-0.00000004,0.000000
 77,0.00000002,-0.00000007,0.00000033,0.00000021,0.00000006,0.00000018,
 -0.00000010,-0.00000030,0.00000058,-0.00000004,-0.00000540,-0.00000035
 ,0.00000083,-0.00000042,0.00000037,-0.00000133,0.00000342,0.00000076,-
 0.00000023,0.00000150,-0.00000003,-0.00000114,0.00000009,0.00000014,-0
 .00000079,0.00000028,-0.00000050,0.00000003,0.00000028,-0.00000047,-0.
 00000071,0.00000002,0.00000139,0.00000027,0.00000025,0.00000035,0.0000
 0022,-0.00000037,0.00000018,-0.00000041,0.00000096,-0.00000080,0.00000
 015,0.00000087,0.00000018,-0.00000061,0.00000022,-0.00000022,-0.000000
 04,0.00000002,-0.00000008,0.00000035,-0.00000024,-0.00000019,0.0000001
 3,-0.00000095,0.00000119,0.00000157,-0.00000012,-0.00000010,0.00000080
 ,0.,0.00000021,0.00000039,0.00000015,-0.00000020,0.00000076,0.00000007
 ,0.00000064,-0.00000072,0.00000013,-0.00000016,0.00000071,-0.00000008,
 -0.00000031,0.00000037,0.00000006,-0.00000095,0.00000009,-0.00000017,-
 0.00000017,0.00000017\\\@


 POCKETA-POCKETA
 BARON VON RICHTOFEN
 SLAUGHTERED THE ALLIES WITH
 HARDLY A CARE.
 KILLED EIGHTY-ONE WITH HIS
 BLOOD-COLORED TRIPLANE, THEN
 UN-AEROBATICALLY
 PLUNGED FROM THE AIR.
   -- TONY HOFFMAN
 Job cpu time:       0 days 21 hours  0 minutes 57.0 seconds.
 Elapsed time:       0 days  1 hours 45 minutes 51.8 seconds.
 File lengths (MBytes):  RWF=   3024 Int=      0 D2E=      0 Chk=     56 Scr=     16
 Normal termination of Gaussian 16 at Wed Jun 30 02:01:34 2021.
