 Entering Gaussian System, Link 0=g16
 Input=ethane-r1.com
 Output=ethane-r1.log
 Initial command:
 /projects/jasm3285/g16/l1.exe "/rc_scratch/jasm3285/Gau-43309.inp" -scrdir="/rc_scratch/jasm3285/"
 Entering Link 1 = /projects/jasm3285/g16/l1.exe PID=     43310.
  
 Copyright (c) 1988,1990,1992,1993,1995,1998,2003,2009,2016,
            Gaussian, Inc.  All Rights Reserved.
  
 This is part of the Gaussian(R) 16 program.  It is based on
 the Gaussian(R) 09 system (copyright 2009, Gaussian, Inc.),
 the Gaussian(R) 03 system (copyright 2003, Gaussian, Inc.),
 the Gaussian(R) 98 system (copyright 1998, Gaussian, Inc.),
 the Gaussian(R) 94 system (copyright 1995, Gaussian, Inc.),
 the Gaussian 92(TM) system (copyright 1992, Gaussian, Inc.),
 the Gaussian 90(TM) system (copyright 1990, Gaussian, Inc.),
 the Gaussian 88(TM) system (copyright 1988, Gaussian, Inc.),
 the Gaussian 86(TM) system (copyright 1986, Carnegie Mellon
 University), and the Gaussian 82(TM) system (copyright 1983,
 Carnegie Mellon University). Gaussian is a federally registered
 trademark of Gaussian, Inc.
  
 This software contains proprietary and confidential information,
 including trade secrets, belonging to Gaussian, Inc.
  
 This software is provided under written license and may be
 used, copied, transmitted, or stored only in accord with that
 written license.
  
 The following legend is applicable only to US Government
 contracts under FAR:
  
                    RESTRICTED RIGHTS LEGEND
  
 Use, reproduction and disclosure by the US Government is
 subject to restrictions as set forth in subparagraphs (a)
 and (c) of the Commercial Computer Software - Restricted
 Rights clause in FAR 52.227-19.
  
 Gaussian, Inc.
 340 Quinnipiac St., Bldg. 40, Wallingford CT 06492
  
  
 ---------------------------------------------------------------
 Warning -- This program may not be used in any manner that
 competes with the business of Gaussian, Inc. or will provide
 assistance to any competitor of Gaussian, Inc.  The licensee
 of this program is prohibited from giving any competitor of
 Gaussian, Inc. access to this program.  By using this program,
 the user acknowledges that Gaussian, Inc. is engaged in the
 business of creating and licensing software in the field of
 computational chemistry and represents and warrants to the
 licensee that it is not a competitor of Gaussian, Inc. and that
 it will not use this program in any manner prohibited above.
 ---------------------------------------------------------------
  

 Cite this work as:
 Gaussian 16, Revision A.03,
 M. J. Frisch, G. W. Trucks, H. B. Schlegel, G. E. Scuseria, 
 M. A. Robb, J. R. Cheeseman, G. Scalmani, V. Barone, 
 G. A. Petersson, H. Nakatsuji, X. Li, M. Caricato, A. V. Marenich, 
 J. Bloino, B. G. Janesko, R. Gomperts, B. Mennucci, H. P. Hratchian, 
 J. V. Ortiz, A. F. Izmaylov, J. L. Sonnenberg, D. Williams-Young, 
 F. Ding, F. Lipparini, F. Egidi, J. Goings, B. Peng, A. Petrone, 
 T. Henderson, D. Ranasinghe, V. G. Zakrzewski, J. Gao, N. Rega, 
 G. Zheng, W. Liang, M. Hada, M. Ehara, K. Toyota, R. Fukuda, 
 J. Hasegawa, M. Ishida, T. Nakajima, Y. Honda, O. Kitao, H. Nakai, 
 T. Vreven, K. Throssell, J. A. Montgomery, Jr., J. E. Peralta, 
 F. Ogliaro, M. J. Bearpark, J. J. Heyd, E. N. Brothers, K. N. Kudin, 
 V. N. Staroverov, T. A. Keith, R. Kobayashi, J. Normand, 
 K. Raghavachari, A. P. Rendell, J. C. Burant, S. S. Iyengar, 
 J. Tomasi, M. Cossi, J. M. Millam, M. Klene, C. Adamo, R. Cammi, 
 J. W. Ochterski, R. L. Martin, K. Morokuma, O. Farkas, 
 J. B. Foresman, and D. J. Fox, Gaussian, Inc., Wallingford CT, 2016.
 
 ******************************************
 Gaussian 16:  ES64L-G16RevA.03 25-Dec-2016
                15-Mar-2018 
 ******************************************
 %mem=60GB
 %nprocshared=28
 Will use up to   28 processors via shared memory.
 ----------------------------------------------------------------------
 # opt=(tight,modredundant,noeigentest,maxcyc=400) cbs-qb3 nosymm geom=
 connectivity ccsd=maxcyc=1000
 ----------------------------------------------------------------------
 1/6=400,7=10,11=1,18=120,19=15,26=3,38=1,57=2/1,3;
 2/9=110,12=2,15=1,17=6,18=5,40=1/2;
 3/5=4,6=6,7=700,11=2,25=1,30=1,71=1,74=-5/1,2,3;
 4//1;
 5/5=2,38=5/2;
 6/7=2,8=2,9=2,10=2,28=1/1;
 7/30=1/1,2,3,16;
 1/6=400,7=10,11=1,18=20,19=15,26=3/3(2);
 2/9=110,15=1/2;
 99//99;
 2/9=110,15=1/2;
 3/5=4,6=6,7=700,11=2,25=1,30=1,71=1,74=-5/1,2,3;
 4/5=5,16=3,69=1/1;
 5/5=2,38=5/2;
 7/30=1/1,2,3,16;
 1/6=400,7=10,11=1,18=20,19=15,26=3/3(-5);
 2/9=110,15=1/2;
 6/7=2,8=2,9=2,10=2,19=2,28=1/1;
 99/9=1/99;
 -------------------
 Title Card Required
 -------------------
 Symbolic Z-matrix:
 Charge =  0 Multiplicity = 1
 C                    -0.81652   0.30804  -0.0068 
 H                    -0.46925  -0.72845  -0.0381 
 H                    -0.46922   0.79917  -0.92007 
 H                    -1.90949   0.28999  -0.0381 
 C                    -0.30637   1.02948   1.24279 
 H                     0.78661   1.04753   1.27409 
 H                    -0.65363   2.06598   1.27408 
 H                    -0.65367   0.53836   2.15606 
 
 The following ModRedundant input section has been read:
 D       3       1       5       7 S  24 15.000                                
 

 GradGradGradGradGradGradGradGradGradGradGradGradGradGradGradGradGradGrad
 Berny optimization.
 Initialization pass.
                           ----------------------------
                           !    Initial Parameters    !
                           ! (Angstroms and Degrees)  !
 --------------------------                            --------------------------
 ! Name  Definition              Value          Derivative Info.                !
 --------------------------------------------------------------------------------
 ! R1    R(1,2)                  1.0936         estimate D2E/DX2                !
 ! R2    R(1,3)                  1.0936         estimate D2E/DX2                !
 ! R3    R(1,4)                  1.0936         estimate D2E/DX2                !
 ! R4    R(1,5)                  1.5304         estimate D2E/DX2                !
 ! R5    R(5,6)                  1.0936         estimate D2E/DX2                !
 ! R6    R(5,7)                  1.0936         estimate D2E/DX2                !
 ! R7    R(5,8)                  1.0936         estimate D2E/DX2                !
 ! A1    A(2,1,3)              107.5128         estimate D2E/DX2                !
 ! A2    A(2,1,4)              107.5129         estimate D2E/DX2                !
 ! A3    A(2,1,5)              111.365          estimate D2E/DX2                !
 ! A4    A(3,1,4)              107.5128         estimate D2E/DX2                !
 ! A5    A(3,1,5)              111.365          estimate D2E/DX2                !
 ! A6    A(4,1,5)              111.365          estimate D2E/DX2                !
 ! A7    A(1,5,6)              111.365          estimate D2E/DX2                !
 ! A8    A(1,5,7)              111.365          estimate D2E/DX2                !
 ! A9    A(1,5,8)              111.3651         estimate D2E/DX2                !
 ! A10   A(6,5,7)              107.5129         estimate D2E/DX2                !
 ! A11   A(6,5,8)              107.5128         estimate D2E/DX2                !
 ! A12   A(7,5,8)              107.5128         estimate D2E/DX2                !
 ! D1    D(2,1,5,6)             60.0            estimate D2E/DX2                !
 ! D2    D(2,1,5,7)            180.0            estimate D2E/DX2                !
 ! D3    D(2,1,5,8)            -60.0            estimate D2E/DX2                !
 ! D4    D(3,1,5,6)            -60.0001         estimate D2E/DX2                !
 ! D5    D(3,1,5,7)             60.0            Scan                            !
 ! D6    D(3,1,5,8)            180.0            estimate D2E/DX2                !
 ! D7    D(4,1,5,6)           -180.0            estimate D2E/DX2                !
 ! D8    D(4,1,5,7)            -60.0            estimate D2E/DX2                !
 ! D9    D(4,1,5,8)             60.0            estimate D2E/DX2                !
 --------------------------------------------------------------------------------
 Trust Radius=3.00D-01 FncErr=1.00D-07 GrdErr=1.00D-06 EigMax=2.50D+02 EigMin=1.00D-04
 Number of optimizations in scan=  25
 Number of steps in this run=    100 maximum allowed number of steps=    100.
 GradGradGradGradGradGradGradGradGradGradGradGradGradGradGradGradGradGrad

                          Input orientation:                          
 ---------------------------------------------------------------------
 Center     Atomic      Atomic             Coordinates (Angstroms)
 Number     Number       Type             X           Y           Z
 ---------------------------------------------------------------------
      1          6           0       -0.816516    0.308041   -0.006802
      2          1           0       -0.469249   -0.728452   -0.038095
      3          1           0       -0.469215    0.799170   -0.920073
      4          1           0       -1.909487    0.289994   -0.038104
      5          6           0       -0.306365    1.029485    1.242787
      6          1           0        0.786606    1.047532    1.274089
      7          1           0       -0.653632    2.065978    1.274080
      8          1           0       -0.653666    0.538357    2.156059
 ---------------------------------------------------------------------
                    Distance matrix (angstroms):
                    1          2          3          4          5
     1  C    0.000000
     2  H    1.093568   0.000000
     3  H    1.093567   1.763948   0.000000
     4  H    1.093568   1.763949   1.763948   0.000000
     5  C    1.530427   2.181177   2.181176   2.181176   0.000000
     6  H    2.181176   2.540299   2.540299   3.092674   1.093568
     7  H    2.181177   3.092675   2.540299   2.540299   1.093568
     8  H    2.181177   2.540300   3.092674   2.540300   1.093568
                    6          7          8
     6  H    0.000000
     7  H    1.763949   0.000000
     8  H    1.763948   1.763948   0.000000
 Symmetry turned off by external request.
 This structure is nearly, but not quite of a higher symmetry.
 Consider Symm=Loose if the higher symmetry is desired.
 Stoichiometry    C2H6
 Framework group  CI[X(C2H6)]
 Deg. of freedom     9
 Full point group                 CI      NOp   2
 Rotational constants (GHZ):          80.5805413          19.9151574          19.9151529
 Standard basis: 6-311G(2d,d,p) (5D, 7F)
    72 basis functions,   112 primitive gaussians,    74 cartesian basis functions
     9 alpha electrons        9 beta electrons
       nuclear repulsion energy        42.1653060207 Hartrees.
 NAtoms=    8 NActive=    8 NUniq=    8 SFac= 1.00D+00 NAtFMM=   60 NAOKFM=F Big=F
 Integral buffers will be    131072 words long.
 Raffenetti 2 integral format.
 Two-electron integral symmetry is turned off.
 One-electron integrals computed using PRISM.
 NBasis=    72 RedAO= T EigKep=  3.95D-03  NBF=    72
 NBsUse=    72 1.00D-06 EigRej= -1.00D+00 NBFU=    72
 ExpMin= 1.03D-01 ExpMax= 4.56D+03 ExpMxC= 6.82D+02 IAcc=3 IRadAn=         5 AccDes= 0.00D+00
 Harris functional with IExCor=  402 and IRadAn=       5 diagonalized for initial guess.
 HarFok:  IExCor=  402 AccDes= 0.00D+00 IRadAn=         5 IDoV= 1 UseB2=F ITyADJ=14
 ICtDFT=  3500011 ScaDFX=  1.000000  1.000000  1.000000  1.000000
 FoFCou: FMM=F IPFlag=           0 FMFlag=      100000 FMFlg1=           0
         NFxFlg=           0 DoJE=T BraDBF=F KetDBF=T FulRan=T
         wScrn=  0.000000 ICntrl=       500 IOpCl=  0 I1Cent=   200000004 NGrid=           0
         NMat0=    1 NMatS0=      1 NMatT0=    0 NMatD0=    1 NMtDS0=    0 NMtDT0=    0
 Symmetry not used in FoFCou.
 Keep R1 ints in memory in canonical form, NReq=28553792.
 Requested convergence on RMS density matrix=1.00D-08 within 128 cycles.
 Requested convergence on MAX density matrix=1.00D-06.
 Requested convergence on             energy=1.00D-06.
 No special actions if energy rises.
 Integral accuracy reduced to 1.0D-05 until final iterations.
 Initial convergence to 1.0D-05 achieved.  Increase integral accuracy.
 SCF Done:  E(RB3LYP) =  -79.8562628984     A.U. after    9 cycles
            NFock=  9  Conv=0.12D-08     -V/T= 2.0057

 **********************************************************************

            Population analysis using the SCF density.

 **********************************************************************

 Alpha  occ. eigenvalues --  -10.15810 -10.15787  -0.75364  -0.61752  -0.43614
 Alpha  occ. eigenvalues --   -0.43614  -0.37036  -0.34549  -0.34549
 Alpha virt. eigenvalues --    0.04799   0.08733   0.10354   0.10354   0.13912
 Alpha virt. eigenvalues --    0.13912   0.22510   0.29811   0.29811   0.33047
 Alpha virt. eigenvalues --    0.33148   0.33148   0.53169   0.56845   0.58305
 Alpha virt. eigenvalues --    0.58305   0.60137   0.60137   0.61639   0.75722
 Alpha virt. eigenvalues --    0.86308   0.95887   0.95887   1.25114   1.25114
 Alpha virt. eigenvalues --    1.46351   1.46573   1.46573   1.47029   1.47442
 Alpha virt. eigenvalues --    1.47442   1.49550   1.69278   1.69376   1.69376
 Alpha virt. eigenvalues --    1.82361   1.82361   1.97924   2.09095   2.09095
 Alpha virt. eigenvalues --    2.09648   2.27243   2.31725   2.31725   2.37480
 Alpha virt. eigenvalues --    2.37480   2.43145   2.51791   2.51791   2.57761
 Alpha virt. eigenvalues --    2.57761   2.64762   2.64762   2.73984   2.76670
 Alpha virt. eigenvalues --    3.15353   3.79117   3.79117   3.80823   3.80823
 Alpha virt. eigenvalues --    4.21642  23.88440  23.95897
          Condensed to atoms (all electrons):
               1          2          3          4          5          6
     1  C    4.846033   0.406267   0.406267   0.406267   0.358935  -0.035446
     2  H    0.406267   0.592020  -0.032158  -0.032158  -0.035446  -0.006470
     3  H    0.406267  -0.032158   0.592020  -0.032158  -0.035446  -0.006470
     4  H    0.406267  -0.032158  -0.032158   0.592020  -0.035446   0.008605
     5  C    0.358935  -0.035446  -0.035446  -0.035446   4.846033   0.406267
     6  H   -0.035446  -0.006470  -0.006470   0.008605   0.406267   0.592020
     7  H   -0.035446   0.008605  -0.006470  -0.006470   0.406267  -0.032158
     8  H   -0.035446  -0.006470   0.008605  -0.006470   0.406267  -0.032158
               7          8
     1  C   -0.035446  -0.035446
     2  H    0.008605  -0.006470
     3  H   -0.006470   0.008605
     4  H   -0.006470  -0.006470
     5  C    0.406267   0.406267
     6  H   -0.032158  -0.032158
     7  H    0.592020  -0.032158
     8  H   -0.032158   0.592020
 Mulliken charges:
               1
     1  C   -0.317431
     2  H    0.105810
     3  H    0.105810
     4  H    0.105810
     5  C   -0.317431
     6  H    0.105810
     7  H    0.105810
     8  H    0.105810
 Sum of Mulliken charges =  -0.00000
 Mulliken charges with hydrogens summed into heavy atoms:
               1
     1  C    0.000000
     5  C   -0.000000
 Electronic spatial extent (au):  <R**2>=            183.8507
 Charge=             -0.0000 electrons
 Dipole moment (field-independent basis, Debye):
    X=             -0.0000    Y=              0.0000    Z=             -0.0000  Tot=              0.0000
 Quadrupole moment (field-independent basis, Debye-Ang):
   XX=            -15.0883   YY=            -15.1581   ZZ=            -15.4375
   XY=             -0.0988   XZ=             -0.1711   YZ=             -0.2419
 Traceless Quadrupole moment (field-independent basis, Debye-Ang):
   XX=              0.1397   YY=              0.0698   ZZ=             -0.2095
   XY=             -0.0988   XZ=             -0.1711   YZ=             -0.2419
 Octapole moment (field-independent basis, Debye-Ang**2):
  XXX=             25.4135  YYY=            -30.4116  ZZZ=            -28.6208  XYY=              8.3783
  XXY=             -9.9796  XXZ=             -9.1323  XZZ=              8.4558  YZZ=            -10.6231
  YYZ=             -9.6912  XYZ=             -0.0396
 Hexadecapole moment (field-independent basis, Debye-Ang**3):
 XXXX=            -64.2224 YYYY=            -83.7933 ZZZZ=           -107.6490 XXXY=             12.4415
 XXXZ=              7.8174 YYYX=             10.8927 YYYZ=            -30.6113 ZZZX=              6.1443
 ZZZY=            -33.1756 XXYY=            -25.8222 XXZZ=            -29.4769 YYZZ=            -33.1973
 XXYZ=            -10.1347 YYXZ=              2.0401 ZZXY=              4.3453
 N-N= 4.216530602065D+01 E-N=-2.685759758474D+02  KE= 7.940505497492D+01
 Calling FoFJK, ICntrl=      2127 FMM=F ISym2X=0 I1Cent= 0 IOpClX= 0 NMat=1 NMatS=1 NMatT=0.
 -------------------------------------------------------------------
 Center     Atomic                   Forces (Hartrees/Bohr)
 Number     Number              X              Y              Z
 -------------------------------------------------------------------
      1        6          -0.000000136   -0.000000338    0.000000415
      2        1           0.000000086    0.000000168    0.000000020
      3        1           0.000000205    0.000000059   -0.000000275
      4        1           0.000000179   -0.000000086   -0.000000076
      5        6           0.000000049    0.000000308   -0.000000109
      6        1          -0.000000179    0.000000087    0.000000073
      7        1          -0.000000065   -0.000000143   -0.000000073
      8        1          -0.000000138   -0.000000055    0.000000025
 -------------------------------------------------------------------
 Cartesian Forces:  Max     0.000000415 RMS     0.000000172

 GradGradGradGradGradGradGradGradGradGradGradGradGradGradGradGradGradGrad
 Berny optimization.
 FormGI is forming the generalized inverse of G from B-inverse, IUseBI=4.
 Internal  Forces:  Max     0.000000315 RMS     0.000000090
 Search for a local minimum.
 Step number   1 out of a maximum of  100 on scan point     1 out of    25
 All quantities printed in internal units (Hartrees-Bohrs-Radians)
 Mixed Optimization -- En-DIIS/RFO-DIIS
 Second derivative matrix not updated -- first step.
 ITU=  0
     Eigenvalues ---    0.01740   0.05455   0.05455   0.05455   0.16000
     Eigenvalues ---    0.16000   0.16000   0.16000   0.16000   0.16000
     Eigenvalues ---    0.29384   0.34404   0.34404   0.34404   0.34404
     Eigenvalues ---    0.34404   0.344041000.000001000.000001000.00000
     Eigenvalues --- 1000.000001000.000001000.000001000.000001000.00000
     Eigenvalues --- 1000.000001000.000001000.00000
 RFO step:  Lambda= 0.00000000D+00 EMin= 1.74038293D-02
 Linear search not attempted -- first point.
 Iteration  1 RMS(Cart)=  0.00000033 RMS(Int)=  0.00000000
 Iteration  1 RMS(Cart)=  0.00000000 RMS(Int)=  0.00000000
 Variable       Old X    -DE/DX   Delta X   Delta X   Delta X     New X
                                 (Linear)    (Quad)   (Total)
    R1        2.06654  -0.00000   0.00000  -0.00000  -0.00000   2.06654
    R2        2.06654   0.00000   0.00000   0.00000   0.00000   2.06654
    R3        2.06654  -0.00000   0.00000  -0.00000  -0.00000   2.06654
    R4        2.89209  -0.00000   0.00000  -0.00000  -0.00000   2.89209
    R5        2.06654  -0.00000   0.00000  -0.00000  -0.00000   2.06654
    R6        2.06654  -0.00000   0.00000  -0.00000  -0.00000   2.06654
    R7        2.06654   0.00000   0.00000   0.00000   0.00000   2.06654
    A1        1.87645  -0.00000   0.00000  -0.00000  -0.00000   1.87645
    A2        1.87645   0.00000   0.00000   0.00000   0.00000   1.87645
    A3        1.94369   0.00000   0.00000   0.00000   0.00000   1.94369
    A4        1.87645  -0.00000   0.00000  -0.00000  -0.00000   1.87645
    A5        1.94369   0.00000   0.00000   0.00000   0.00000   1.94369
    A6        1.94369   0.00000   0.00000   0.00000   0.00000   1.94369
    A7        1.94369   0.00000   0.00000   0.00000   0.00000   1.94369
    A8        1.94369   0.00000   0.00000   0.00000   0.00000   1.94369
    A9        1.94369  -0.00000   0.00000  -0.00000  -0.00000   1.94369
   A10        1.87645   0.00000   0.00000   0.00000   0.00000   1.87645
   A11        1.87645   0.00000   0.00000   0.00000   0.00000   1.87645
   A12        1.87645   0.00000   0.00000   0.00000   0.00000   1.87645
    D1        1.04720  -0.00000   0.00000  -0.00000  -0.00000   1.04720
    D2        3.14159  -0.00000   0.00000  -0.00000  -0.00000   3.14159
    D3       -1.04720  -0.00000   0.00000  -0.00000  -0.00000  -1.04720
    D4       -1.04720  -0.00000   0.00000  -0.00000  -0.00000  -1.04720
    D5        1.04720   0.00000   0.00000   0.00000  -0.00000   1.04720
    D6        3.14159   0.00000   0.00000   0.00000   0.00000   3.14159
    D7       -3.14159  -0.00000   0.00000  -0.00000  -0.00000   3.14159
    D8       -1.04720   0.00000   0.00000  -0.00000  -0.00000  -1.04720
    D9        1.04720   0.00000   0.00000  -0.00000  -0.00000   1.04720
         Item               Value     Threshold  Converged?
 Maximum Force            0.000000     0.000015     YES
 RMS     Force            0.000000     0.000010     YES
 Maximum Displacement     0.000001     0.000060     YES
 RMS     Displacement     0.000000     0.000040     YES
 Predicted change in Energy=-3.884851D-13
 Optimization completed.
    -- Stationary point found.
                           ----------------------------
                           !   Optimized Parameters   !
                           ! (Angstroms and Degrees)  !
 --------------------------                            --------------------------
 ! Name  Definition              Value          Derivative Info.                !
 --------------------------------------------------------------------------------
 ! R1    R(1,2)                  1.0936         -DE/DX =    0.0                 !
 ! R2    R(1,3)                  1.0936         -DE/DX =    0.0                 !
 ! R3    R(1,4)                  1.0936         -DE/DX =    0.0                 !
 ! R4    R(1,5)                  1.5304         -DE/DX =    0.0                 !
 ! R5    R(5,6)                  1.0936         -DE/DX =    0.0                 !
 ! R6    R(5,7)                  1.0936         -DE/DX =    0.0                 !
 ! R7    R(5,8)                  1.0936         -DE/DX =    0.0                 !
 ! A1    A(2,1,3)              107.5128         -DE/DX =    0.0                 !
 ! A2    A(2,1,4)              107.5129         -DE/DX =    0.0                 !
 ! A3    A(2,1,5)              111.365          -DE/DX =    0.0                 !
 ! A4    A(3,1,4)              107.5128         -DE/DX =    0.0                 !
 ! A5    A(3,1,5)              111.365          -DE/DX =    0.0                 !
 ! A6    A(4,1,5)              111.365          -DE/DX =    0.0                 !
 ! A7    A(1,5,6)              111.365          -DE/DX =    0.0                 !
 ! A8    A(1,5,7)              111.365          -DE/DX =    0.0                 !
 ! A9    A(1,5,8)              111.3651         -DE/DX =    0.0                 !
 ! A10   A(6,5,7)              107.5129         -DE/DX =    0.0                 !
 ! A11   A(6,5,8)              107.5128         -DE/DX =    0.0                 !
 ! A12   A(7,5,8)              107.5128         -DE/DX =    0.0                 !
 ! D1    D(2,1,5,6)             60.0            -DE/DX =    0.0                 !
 ! D2    D(2,1,5,7)            180.0            -DE/DX =    0.0                 !
 ! D3    D(2,1,5,8)            -60.0            -DE/DX =    0.0                 !
 ! D4    D(3,1,5,6)            -60.0001         -DE/DX =    0.0                 !
 ! D5    D(3,1,5,7)             60.0            -DE/DX =    0.0                 !
 ! D6    D(3,1,5,8)            180.0            -DE/DX =    0.0                 !
 ! D7    D(4,1,5,6)            180.0            -DE/DX =    0.0                 !
 ! D8    D(4,1,5,7)            -60.0            -DE/DX =    0.0                 !
 ! D9    D(4,1,5,8)             60.0            -DE/DX =    0.0                 !
 --------------------------------------------------------------------------------
 Iteration  1 RMS(Cart)=  0.01667483 RMS(Int)=  0.03871030
 Iteration  2 RMS(Cart)=  0.00543118 RMS(Int)=  0.03796939
 Iteration  3 RMS(Cart)=  0.00025635 RMS(Int)=  0.03796898
 Iteration  4 RMS(Cart)=  0.00000868 RMS(Int)=  0.03796898
 Iteration  5 RMS(Cart)=  0.00000040 RMS(Int)=  0.03796898
 Iteration  1 RMS(Cart)=  0.01302260 RMS(Int)=  0.02234383
 Iteration  2 RMS(Cart)=  0.00773492 RMS(Int)=  0.02489705
 Iteration  3 RMS(Cart)=  0.00457309 RMS(Int)=  0.02835066
 Iteration  4 RMS(Cart)=  0.00269570 RMS(Int)=  0.03083627
 Iteration  5 RMS(Cart)=  0.00158614 RMS(Int)=  0.03241545
 Iteration  6 RMS(Cart)=  0.00093226 RMS(Int)=  0.03337748
 Iteration  7 RMS(Cart)=  0.00054758 RMS(Int)=  0.03395310
 Iteration  8 RMS(Cart)=  0.00032151 RMS(Int)=  0.03429449
 Iteration  9 RMS(Cart)=  0.00018873 RMS(Int)=  0.03449604
 Iteration 10 RMS(Cart)=  0.00011077 RMS(Int)=  0.03461472
 Iteration 11 RMS(Cart)=  0.00006501 RMS(Int)=  0.03468450
 Iteration 12 RMS(Cart)=  0.00003815 RMS(Int)=  0.03472550
 Iteration 13 RMS(Cart)=  0.00002239 RMS(Int)=  0.03474957
 Iteration 14 RMS(Cart)=  0.00001314 RMS(Int)=  0.03476370
 Iteration 15 RMS(Cart)=  0.00000771 RMS(Int)=  0.03477200
 Iteration 16 RMS(Cart)=  0.00000452 RMS(Int)=  0.03477687
 Iteration 17 RMS(Cart)=  0.00000266 RMS(Int)=  0.03477973
 Iteration 18 RMS(Cart)=  0.00000156 RMS(Int)=  0.03478140
 Iteration 19 RMS(Cart)=  0.00000091 RMS(Int)=  0.03478239
 GradGradGradGradGradGradGradGradGradGradGradGradGradGradGradGradGradGrad

                          Input orientation:                          
 ---------------------------------------------------------------------
 Center     Atomic      Atomic             Coordinates (Angstroms)
 Number     Number       Type             X           Y           Z
 ---------------------------------------------------------------------
      1          6           0       -0.844345    0.334595   -0.010128
      2          1           0       -0.483827   -0.697867   -0.014800
      3          1           0       -0.417010    0.732872   -0.935339
      4          1           0       -1.936931    0.300007   -0.041329
      5          6           0       -0.278535    1.045642    1.221454
      6          1           0        0.814051    1.055330    1.267031
      7          1           0       -0.705838    2.046052    1.339128
      8          1           0       -0.639088    0.533474    2.117924
 ---------------------------------------------------------------------
                    Distance matrix (angstroms):
                    1          2          3          4          5
     1  C    0.000000
     2  H    1.093605   0.000000
     3  H    1.094191   1.702607   0.000000
     4  H    1.093579   1.762943   1.815706   0.000000
     5  C    1.530530   2.147159   2.183749   2.213791   0.000000
     6  H    2.213791   2.530075   2.543605   3.138507   1.093579
     7  H    2.183749   3.067817   2.642170   2.543605   1.094192
     8  H    2.147159   2.467553   3.067816   2.530075   1.093605
                    6          7          8
     6  H    0.000000
     7  H    1.815707   0.000000
     8  H    1.762942   1.702607   0.000000
 Symmetry turned off by external request.
 Stoichiometry    C2H6
 Framework group  C1[X(C2H6)]
 Deg. of freedom    18
 Full point group                 C1      NOp   1
 Rotational constants (GHZ):          80.7369912          20.0719028          19.7376144
 Standard basis: 6-311G(2d,d,p) (5D, 7F)
    72 basis functions,   112 primitive gaussians,    74 cartesian basis functions
     9 alpha electrons        9 beta electrons
       nuclear repulsion energy        42.1650867723 Hartrees.
 NAtoms=    8 NActive=    8 NUniq=    8 SFac= 1.00D+00 NAtFMM=   60 NAOKFM=F Big=F
 Integral buffers will be    131072 words long.
 Raffenetti 2 integral format.
 Two-electron integral symmetry is turned off.
 One-electron integrals computed using PRISM.
 NBasis=    72 RedAO= T EigKep=  3.85D-03  NBF=    72
 NBsUse=    72 1.00D-06 EigRej= -1.00D+00 NBFU=    72
 Initial guess from the checkpoint file:  "/rc_scratch/jasm3285/Gau-43310.chk"
 B after Tr=    -0.020392    0.015926   -0.024192
         Rot=    0.999981   -0.000000   -0.005352    0.003090 Ang=  -0.71 deg.
 ExpMin= 1.03D-01 ExpMax= 4.56D+03 ExpMxC= 6.82D+02 IAcc=2 IRadAn=         4 AccDes= 0.00D+00
 Harris functional with IExCor=  402 and IRadAn=       4 diagonalized for initial guess.
 HarFok:  IExCor=  402 AccDes= 0.00D+00 IRadAn=         4 IDoV= 1 UseB2=F ITyADJ=14
 ICtDFT=  3500011 ScaDFX=  1.000000  1.000000  1.000000  1.000000
 FoFCou: FMM=F IPFlag=           0 FMFlag=      100000 FMFlg1=           0
         NFxFlg=           0 DoJE=T BraDBF=F KetDBF=T FulRan=T
         wScrn=  0.000000 ICntrl=       500 IOpCl=  0 I1Cent=   200000004 NGrid=           0
         NMat0=    1 NMatS0=      1 NMatT0=    0 NMatD0=    1 NMtDS0=    0 NMtDT0=    0
 Symmetry not used in FoFCou.
 Keep R1 ints in memory in canonical form, NReq=28553792.
 Requested convergence on RMS density matrix=1.00D-08 within 128 cycles.
 Requested convergence on MAX density matrix=1.00D-06.
 Requested convergence on             energy=1.00D-06.
 No special actions if energy rises.
 Integral accuracy reduced to 1.0D-05 until final iterations.
 Initial convergence to 1.0D-05 achieved.  Increase integral accuracy.
 SCF Done:  E(RB3LYP) =  -79.8533220995     A.U. after    9 cycles
            NFock=  9  Conv=0.48D-08     -V/T= 2.0057
 Calling FoFJK, ICntrl=      2127 FMM=F ISym2X=0 I1Cent= 0 IOpClX= 0 NMat=1 NMatS=1 NMatT=0.
 -------------------------------------------------------------------
 Center     Atomic                   Forces (Hartrees/Bohr)
 Number     Number              X              Y              Z
 -------------------------------------------------------------------
      1        6           0.017243628   -0.008693623   -0.002862861
      2        1          -0.003450121   -0.003816650    0.002220903
      3        1          -0.007898638    0.006402739   -0.001057745
      4        1           0.002308536    0.004442677   -0.001182952
      5        6          -0.017243795   -0.001866170    0.008960273
      6        1          -0.002308354    0.003245850   -0.003256037
      7        1           0.007898937    0.004116927   -0.005016537
      8        1           0.003449808   -0.003831751    0.002194955
 -------------------------------------------------------------------
 Cartesian Forces:  Max     0.017243795 RMS     0.006729851

 GradGradGradGradGradGradGradGradGradGradGradGradGradGradGradGradGradGrad
 Berny optimization.
 FormGI is forming the generalized inverse of G from B-inverse, IUseBI=4.
 Internal  Forces:  Max     0.009247763 RMS     0.003346541
 Search for a local minimum.
 Step number   1 out of a maximum of  100 on scan point     2 out of    25
 All quantities printed in internal units (Hartrees-Bohrs-Radians)
 Mixed Optimization -- RFO/linear search
 Second derivative matrix not updated -- first step.
 ITU=  0
     Eigenvalues ---    0.01687   0.04912   0.05473   0.05894   0.16000
     Eigenvalues ---    0.16000   0.16000   0.16000   0.16000   0.16000
     Eigenvalues ---    0.29384   0.34404   0.34404   0.34404   0.34404
     Eigenvalues ---    0.34404   0.344041000.000001000.000001000.00000
     Eigenvalues --- 1000.000001000.000001000.000001000.000001000.00000
     Eigenvalues --- 1000.000001000.000001000.00000
 RFO step:  Lambda=-3.41197256D-03 EMin= 1.68744830D-02
 Linear search not attempted -- first point.
 Iteration  1 RMS(Cart)=  0.05750270 RMS(Int)=  0.00262267
 Iteration  2 RMS(Cart)=  0.00260472 RMS(Int)=  0.00065931
 Iteration  3 RMS(Cart)=  0.00000477 RMS(Int)=  0.00065931
 Iteration  4 RMS(Cart)=  0.00000000 RMS(Int)=  0.00065931
 Iteration  1 RMS(Cart)=  0.00000344 RMS(Int)=  0.00000580
 Iteration  2 RMS(Cart)=  0.00000202 RMS(Int)=  0.00000647
 Iteration  3 RMS(Cart)=  0.00000119 RMS(Int)=  0.00000736
 Iteration  4 RMS(Cart)=  0.00000070 RMS(Int)=  0.00000801
 Variable       Old X    -DE/DX   Delta X   Delta X   Delta X     New X
                                 (Linear)    (Quad)   (Total)
    R1        2.06661   0.00246   0.00000   0.00707   0.00707   2.07368
    R2        2.06772   0.00014   0.00000   0.00040   0.00040   2.06813
    R3        2.06657  -0.00241   0.00000  -0.00695  -0.00695   2.05962
    R4        2.89228   0.00006   0.00000   0.00020   0.00020   2.89249
    R5        2.06657  -0.00241   0.00000  -0.00695  -0.00695   2.05962
    R6        2.06772   0.00014   0.00000   0.00040   0.00040   2.06812
    R7        2.06661   0.00246   0.00000   0.00707   0.00707   2.07368
    A1        1.78368   0.00385   0.00000   0.05249   0.05138   1.83507
    A2        1.87484   0.00020   0.00000   0.00267   0.00309   1.87793
    A3        1.89670   0.00295   0.00000   0.03246   0.03212   1.92883
    A4        1.95798  -0.00315   0.00000  -0.04228  -0.04356   1.91442
    A5        1.94650   0.00134   0.00000   0.00631   0.00504   1.95154
    A6        1.98996  -0.00406   0.00000  -0.03829  -0.03879   1.95117
    A7        1.98996  -0.00406   0.00000  -0.03829  -0.03879   1.95118
    A8        1.94650   0.00134   0.00000   0.00631   0.00504   1.95154
    A9        1.89670   0.00295   0.00000   0.03246   0.03212   1.92883
   A10        1.95798  -0.00315   0.00000  -0.04228  -0.04356   1.91443
   A11        1.87484   0.00020   0.00000   0.00267   0.00310   1.87793
   A12        1.78368   0.00385   0.00000   0.05249   0.05139   1.83507
    D1        1.02239   0.00438   0.00000   0.17016   0.17014   1.19254
    D2       -3.02111  -0.00229   0.00000   0.08425   0.08467  -2.93644
    D3       -1.06802   0.00466   0.00000   0.16851   0.16933  -0.89869
    D4       -0.93069  -0.00257   0.00000   0.08591   0.08548  -0.84521
    D5        1.30899  -0.00925   0.00000   0.00000   0.00001   1.30900
    D6       -3.02111  -0.00229   0.00000   0.08425   0.08467  -2.93644
    D7        3.11281   0.00410   0.00000   0.17182   0.17096  -2.99942
    D8       -0.93069  -0.00257   0.00000   0.08591   0.08548  -0.84521
    D9        1.02240   0.00438   0.00000   0.17016   0.17014   1.19254
         Item               Value     Threshold  Converged?
 Maximum Force            0.004039     0.000015     NO 
 RMS     Force            0.001987     0.000010     NO 
 Maximum Displacement     0.125518     0.000060     NO 
 RMS     Displacement     0.057707     0.000040     NO 
 Predicted change in Energy=-1.976377D-03
 GradGradGradGradGradGradGradGradGradGradGradGradGradGradGradGradGradGrad

                          Input orientation:                          
 ---------------------------------------------------------------------
 Center     Atomic      Atomic             Coordinates (Angstroms)
 Number     Number       Type             X           Y           Z
 ---------------------------------------------------------------------
      1          6           0       -0.825461    0.319944   -0.010079
      2          1           0       -0.539112   -0.739247    0.006838
      3          1           0       -0.385194    0.720461   -0.928488
      4          1           0       -1.912532    0.366428   -0.073368
      5          6           0       -0.297419    1.038275    1.234118
      6          1           0        0.789655    1.116289    1.225529
      7          1           0       -0.737656    2.033913    1.346448
      8          1           0       -0.583805    0.494042    2.142943
 ---------------------------------------------------------------------
                    Distance matrix (angstroms):
                    1          2          3          4          5
     1  C    0.000000
     2  H    1.097346   0.000000
     3  H    1.094405   1.740481   0.000000
     4  H    1.089904   1.765002   1.785869   0.000000
     5  C    1.530638   2.173526   2.187595   2.183916   0.000000
     6  H    2.183917   2.587247   2.485305   3.090508   1.089904
     7  H    2.187593   3.086162   2.650419   2.485301   1.094404
     8  H    2.173525   2.466970   3.086162   2.587245   1.097347
                    6          7          8
     6  H    0.000000
     7  H    1.785870   0.000000
     8  H    1.765002   1.740482   0.000000
 Symmetry turned off by external request.
 Stoichiometry    C2H6
 Framework group  C1[X(C2H6)]
 Deg. of freedom    18
 Full point group                 C1      NOp   1
 Rotational constants (GHZ):          80.5610425          19.9771597          19.8368845
 Standard basis: 6-311G(2d,d,p) (5D, 7F)
    72 basis functions,   112 primitive gaussians,    74 cartesian basis functions
     9 alpha electrons        9 beta electrons
       nuclear repulsion energy        42.1571408735 Hartrees.
 NAtoms=    8 NActive=    8 NUniq=    8 SFac= 1.00D+00 NAtFMM=   60 NAOKFM=F Big=F
 Integral buffers will be    131072 words long.
 Raffenetti 2 integral format.
 Two-electron integral symmetry is turned off.
 One-electron integrals computed using PRISM.
 NBasis=    72 RedAO= T EigKep=  3.91D-03  NBF=    72
 NBsUse=    72 1.00D-06 EigRej= -1.00D+00 NBFU=    72
 Initial guess from the checkpoint file:  "/rc_scratch/jasm3285/Gau-43310.chk"
 B after Tr=     0.013768   -0.007072    0.014443
         Rot=    0.999991    0.000000    0.003638   -0.002100 Ang=   0.48 deg.
 ExpMin= 1.03D-01 ExpMax= 4.56D+03 ExpMxC= 6.82D+02 IAcc=2 IRadAn=         4 AccDes= 0.00D+00
 Harris functional with IExCor=  402 and IRadAn=       4 diagonalized for initial guess.
 HarFok:  IExCor=  402 AccDes= 0.00D+00 IRadAn=         4 IDoV= 1 UseB2=F ITyADJ=14
 ICtDFT=  3500011 ScaDFX=  1.000000  1.000000  1.000000  1.000000
 FoFCou: FMM=F IPFlag=           0 FMFlag=      100000 FMFlg1=           0
         NFxFlg=           0 DoJE=T BraDBF=F KetDBF=T FulRan=T
         wScrn=  0.000000 ICntrl=       500 IOpCl=  0 I1Cent=   200000004 NGrid=           0
         NMat0=    1 NMatS0=      1 NMatT0=    0 NMatD0=    1 NMtDS0=    0 NMtDT0=    0
 Symmetry not used in FoFCou.
 Keep R1 ints in memory in canonical form, NReq=28553792.
 Requested convergence on RMS density matrix=1.00D-08 within 128 cycles.
 Requested convergence on MAX density matrix=1.00D-06.
 Requested convergence on             energy=1.00D-06.
 No special actions if energy rises.
 Integral accuracy reduced to 1.0D-05 until final iterations.
 Initial convergence to 1.0D-05 achieved.  Increase integral accuracy.
 SCF Done:  E(RB3LYP) =  -79.8554365512     A.U. after    9 cycles
            NFock=  9  Conv=0.38D-08     -V/T= 2.0057
 Calling FoFJK, ICntrl=      2127 FMM=F ISym2X=0 I1Cent= 0 IOpClX= 0 NMat=1 NMatS=1 NMatT=0.
 -------------------------------------------------------------------
 Center     Atomic                   Forces (Hartrees/Bohr)
 Number     Number              X              Y              Z
 -------------------------------------------------------------------
      1        6           0.007689050   -0.005646373   -0.000478748
      2        1          -0.001714205    0.001056557    0.001012039
      3        1          -0.003779973    0.003304201    0.000240913
      4        1          -0.001217958    0.000834613   -0.001554651
      5        6          -0.007689173   -0.002408135    0.005129225
      6        1           0.001218014    0.001763724    0.000054526
      7        1           0.003779803    0.001443334   -0.002982405
      8        1           0.001714442   -0.000347922   -0.001420898
 -------------------------------------------------------------------
 Cartesian Forces:  Max     0.007689173 RMS     0.003242588

 GradGradGradGradGradGradGradGradGradGradGradGradGradGradGradGradGradGrad
 Berny optimization.
 Using GEDIIS/GDIIS optimizer.
 FormGI is forming the generalized inverse of G from B-inverse, IUseBI=4.
 Internal  Forces:  Max     0.003860061 RMS     0.001408901
 Search for a local minimum.
 Step number   2 out of a maximum of  100 on scan point     2 out of    25
 All quantities printed in internal units (Hartrees-Bohrs-Radians)
 Mixed Optimization -- En-DIIS/RFO-DIIS
 Update second derivatives using D2CorX and points    1    2
 DE= -2.11D-03 DEPred=-1.98D-03 R= 1.07D+00
 TightC=F SS=  1.41D+00  RLast= 3.99D-01 DXNew= 5.0454D-01 1.1969D+00
 Trust test= 1.07D+00 RLast= 3.99D-01 DXMaxT set to 5.05D-01
 ITU=  1  0
 Use linear search instead of GDIIS.
     Eigenvalues ---    0.01397   0.05276   0.05534   0.05618   0.15993
     Eigenvalues ---    0.16000   0.16000   0.16000   0.16000   0.16908
     Eigenvalues ---    0.29389   0.34396   0.34404   0.34404   0.34404
     Eigenvalues ---    0.34404   0.359941000.000001000.000001000.00000
     Eigenvalues --- 1000.000001000.000001000.000001000.000001000.00000
     Eigenvalues --- 1000.000001000.000001000.00000
 RFO step:  Lambda=-2.09191283D-04 EMin= 1.39650513D-02
 Quartic linear search produced a step of  0.31649.
 Iteration  1 RMS(Cart)=  0.02516541 RMS(Int)=  0.00055205
 Iteration  2 RMS(Cart)=  0.00046126 RMS(Int)=  0.00027570
 Iteration  3 RMS(Cart)=  0.00000011 RMS(Int)=  0.00027570
 Iteration  1 RMS(Cart)=  0.00000737 RMS(Int)=  0.00001243
 Iteration  2 RMS(Cart)=  0.00000434 RMS(Int)=  0.00001385
 Iteration  3 RMS(Cart)=  0.00000256 RMS(Int)=  0.00001578
 Iteration  4 RMS(Cart)=  0.00000150 RMS(Int)=  0.00001717
 Iteration  5 RMS(Cart)=  0.00000089 RMS(Int)=  0.00001805
 Variable       Old X    -DE/DX   Delta X   Delta X   Delta X     New X
                                 (Linear)    (Quad)   (Total)
    R1        2.07368  -0.00145   0.00224  -0.00741  -0.00518   2.06851
    R2        2.06813  -0.00051   0.00013  -0.00207  -0.00194   2.06619
    R3        2.05962   0.00134  -0.00220   0.00696   0.00476   2.06438
    R4        2.89249   0.00051   0.00006   0.00222   0.00229   2.89477
    R5        2.05962   0.00134  -0.00220   0.00696   0.00476   2.06438
    R6        2.06812  -0.00051   0.00013  -0.00207  -0.00194   2.06618
    R7        2.07368  -0.00145   0.00224  -0.00741  -0.00518   2.06851
    A1        1.83507   0.00214   0.01626   0.01044   0.02631   1.86137
    A2        1.87793  -0.00038   0.00098  -0.00174  -0.00063   1.87730
    A3        1.92883   0.00041   0.01017  -0.00105   0.00898   1.93781
    A4        1.91442  -0.00194  -0.01379  -0.01100  -0.02539   1.88904
    A5        1.95154  -0.00060   0.00160  -0.00780  -0.00673   1.94480
    A6        1.95117   0.00046  -0.01228   0.01113  -0.00140   1.94978
    A7        1.95118   0.00046  -0.01228   0.01114  -0.00140   1.94978
    A8        1.95154  -0.00060   0.00159  -0.00780  -0.00674   1.94480
    A9        1.92883   0.00041   0.01017  -0.00105   0.00898   1.93781
   A10        1.91443  -0.00194  -0.01378  -0.01100  -0.02538   1.88904
   A11        1.87793  -0.00038   0.00098  -0.00175  -0.00063   1.87730
   A12        1.83507   0.00214   0.01626   0.01044   0.02631   1.86138
    D1        1.19254   0.00134   0.05385   0.01938   0.07320   1.26573
    D2       -2.93644  -0.00130   0.02680   0.00747   0.03442  -2.90202
    D3       -0.89869   0.00125   0.05359   0.01494   0.06883  -0.82986
    D4       -0.84521  -0.00121   0.02705   0.01191   0.03878  -0.80643
    D5        1.30900  -0.00386   0.00000   0.00000   0.00000   1.30900
    D6       -2.93644  -0.00130   0.02680   0.00747   0.03442  -2.90202
    D7       -2.99942   0.00144   0.05411   0.02382   0.07756  -2.92186
    D8       -0.84521  -0.00121   0.02705   0.01191   0.03878  -0.80643
    D9        1.19254   0.00134   0.05385   0.01938   0.07320   1.26574
         Item               Value     Threshold  Converged?
 Maximum Force            0.001452     0.000015     NO 
 RMS     Force            0.000848     0.000010     NO 
 Maximum Displacement     0.059550     0.000060     NO 
 RMS     Displacement     0.025180     0.000040     NO 
 Predicted change in Energy=-2.338179D-04
 GradGradGradGradGradGradGradGradGradGradGradGradGradGradGradGradGradGrad

                          Input orientation:                          
 ---------------------------------------------------------------------
 Center     Atomic      Atomic             Coordinates (Angstroms)
 Number     Number       Type             X           Y           Z
 ---------------------------------------------------------------------
      1          6           0       -0.821352    0.312049   -0.007992
      2          1           0       -0.567222   -0.752319    0.018506
      3          1           0       -0.374063    0.718318   -0.919229
      4          1           0       -1.907430    0.389513   -0.096428
      5          6           0       -0.301527    1.032520    1.239912
      6          1           0        0.784555    1.147802    1.217069
      7          1           0       -0.748789    2.024823    1.343672
      8          1           0       -0.555695    0.477400    2.148431
 ---------------------------------------------------------------------
                    Distance matrix (angstroms):
                    1          2          3          4          5
     1  C    0.000000
     2  H    1.094607   0.000000
     3  H    1.093378   1.754831   0.000000
     4  H    1.092422   1.764412   1.770968   0.000000
     5  C    1.531848   2.179008   2.183088   2.185906   0.000000
     6  H    2.185908   2.621891   2.467919   3.089831   1.092422
     7  H    2.183084   3.082458   2.639715   2.467910   1.093378
     8  H    2.179007   2.459455   3.082462   2.621889   1.094608
                    6          7          8
     6  H    0.000000
     7  H    1.770970   0.000000
     8  H    1.764410   1.754833   0.000000
 Symmetry turned off by external request.
 Stoichiometry    C2H6
 Framework group  C1[X(C2H6)]
 Deg. of freedom    18
 Full point group                 C1      NOp   1
 Rotational constants (GHZ):          80.6255897          19.9092830          19.8579823
 Standard basis: 6-311G(2d,d,p) (5D, 7F)
    72 basis functions,   112 primitive gaussians,    74 cartesian basis functions
     9 alpha electrons        9 beta electrons
       nuclear repulsion energy        42.1495304500 Hartrees.
 NAtoms=    8 NActive=    8 NUniq=    8 SFac= 1.00D+00 NAtFMM=   60 NAOKFM=F Big=F
 Integral buffers will be    131072 words long.
 Raffenetti 2 integral format.
 Two-electron integral symmetry is turned off.
 One-electron integrals computed using PRISM.
 NBasis=    72 RedAO= T EigKep=  3.90D-03  NBF=    72
 NBsUse=    72 1.00D-06 EigRej= -1.00D+00 NBFU=    72
 Initial guess from the checkpoint file:  "/rc_scratch/jasm3285/Gau-43310.chk"
 B after Tr=     0.003147   -0.006148    0.005900
         Rot=    1.000000   -0.000000    0.000830   -0.000479 Ang=  -0.11 deg.
 ExpMin= 1.03D-01 ExpMax= 4.56D+03 ExpMxC= 6.82D+02 IAcc=2 IRadAn=         4 AccDes= 0.00D+00
 Harris functional with IExCor=  402 and IRadAn=       4 diagonalized for initial guess.
 HarFok:  IExCor=  402 AccDes= 0.00D+00 IRadAn=         4 IDoV= 1 UseB2=F ITyADJ=14
 ICtDFT=  3500011 ScaDFX=  1.000000  1.000000  1.000000  1.000000
 FoFCou: FMM=F IPFlag=           0 FMFlag=      100000 FMFlg1=           0
         NFxFlg=           0 DoJE=T BraDBF=F KetDBF=T FulRan=T
         wScrn=  0.000000 ICntrl=       500 IOpCl=  0 I1Cent=   200000004 NGrid=           0
         NMat0=    1 NMatS0=      1 NMatT0=    0 NMatD0=    1 NMtDS0=    0 NMtDT0=    0
 Symmetry not used in FoFCou.
 Keep R1 ints in memory in canonical form, NReq=28553792.
 Requested convergence on RMS density matrix=1.00D-08 within 128 cycles.
 Requested convergence on MAX density matrix=1.00D-06.
 Requested convergence on             energy=1.00D-06.
 No special actions if energy rises.
 Integral accuracy reduced to 1.0D-05 until final iterations.
 Initial convergence to 1.0D-05 achieved.  Increase integral accuracy.
 SCF Done:  E(RB3LYP) =  -79.8556766205     A.U. after    8 cycles
            NFock=  8  Conv=0.78D-09     -V/T= 2.0057
 Calling FoFJK, ICntrl=      2127 FMM=F ISym2X=0 I1Cent= 0 IOpClX= 0 NMat=1 NMatS=1 NMatT=0.
 -------------------------------------------------------------------
 Center     Atomic                   Forces (Hartrees/Bohr)
 Number     Number              X              Y              Z
 -------------------------------------------------------------------
      1        6           0.003087164   -0.002040490   -0.000130329
      2        1          -0.000240943    0.000359659   -0.000029149
      3        1          -0.001714747    0.001481386   -0.000282019
      4        1          -0.000238923   -0.000081903   -0.000044822
      5        6          -0.003087185   -0.000907434    0.001831929
      6        1           0.000238920   -0.000001749    0.000093122
      7        1           0.001714733    0.000985135   -0.001141842
      8        1           0.000240981    0.000205396   -0.000296889
 -------------------------------------------------------------------
 Cartesian Forces:  Max     0.003087185 RMS     0.001264227

 GradGradGradGradGradGradGradGradGradGradGradGradGradGradGradGradGradGrad
 Berny optimization.
 Using GEDIIS/GDIIS optimizer.
 FormGI is forming the generalized inverse of G from B-inverse, IUseBI=4.
 Internal  Forces:  Max     0.001810085 RMS     0.000554195
 Search for a local minimum.
 Step number   3 out of a maximum of  100 on scan point     2 out of    25
 All quantities printed in internal units (Hartrees-Bohrs-Radians)
 Mixed Optimization -- En-DIIS/RFO-DIIS
 Swapping is turned off.
 Update second derivatives using D2CorX and points    1    2    3
 DE= -2.40D-04 DEPred=-2.34D-04 R= 1.03D+00
 TightC=F SS=  1.41D+00  RLast= 1.73D-01 DXNew= 8.4853D-01 5.1865D-01
 Trust test= 1.03D+00 RLast= 1.73D-01 DXMaxT set to 5.19D-01
 ITU=  1  1  0
     Eigenvalues ---    0.01383   0.05379   0.05499   0.05519   0.15964
     Eigenvalues ---    0.16000   0.16000   0.16000   0.16002   0.16965
     Eigenvalues ---    0.29368   0.34399   0.34404   0.34404   0.34404
     Eigenvalues ---    0.34439   0.356501000.000001000.000001000.00000
     Eigenvalues --- 1000.000001000.000001000.000001000.000001000.00000
     Eigenvalues --- 1000.000001000.000001000.00000
 En-DIIS/RFO-DIIS/Sim-DIIS IScMMF=       -3 using points:     3    2
 RFO step:  Lambda=-2.94913710D-06.
 DidBck=F Rises=F RFO-DIIS coefs:    1.02598   -0.02598
 Iteration  1 RMS(Cart)=  0.00103073 RMS(Int)=  0.00000224
 Iteration  2 RMS(Cart)=  0.00000081 RMS(Int)=  0.00000207
 Iteration  1 RMS(Cart)=  0.00000051 RMS(Int)=  0.00000086
 Variable       Old X    -DE/DX   Delta X   Delta X   Delta X     New X
                                 (Linear)    (Quad)   (Total)
    R1        2.06851  -0.00041  -0.00013  -0.00110  -0.00124   2.06727
    R2        2.06619   0.00008  -0.00005   0.00029   0.00024   2.06642
    R3        2.06438   0.00024   0.00012   0.00060   0.00072   2.06510
    R4        2.89477   0.00023   0.00006   0.00075   0.00081   2.89558
    R5        2.06438   0.00024   0.00012   0.00060   0.00072   2.06510
    R6        2.06618   0.00008  -0.00005   0.00029   0.00024   2.06642
    R7        2.06851  -0.00041  -0.00013  -0.00110  -0.00124   2.06727
    A1        1.86137   0.00056   0.00068  -0.00015   0.00053   1.86190
    A2        1.87730  -0.00013  -0.00002  -0.00148  -0.00150   1.87580
    A3        1.93781   0.00040   0.00023   0.00038   0.00061   1.93842
    A4        1.88904  -0.00066  -0.00066  -0.00000  -0.00067   1.88837
    A5        1.94480   0.00011  -0.00017   0.00123   0.00105   1.94586
    A6        1.94978  -0.00028  -0.00004  -0.00008  -0.00012   1.94966
    A7        1.94978  -0.00028  -0.00004  -0.00008  -0.00012   1.94966
    A8        1.94480   0.00011  -0.00018   0.00123   0.00105   1.94585
    A9        1.93781   0.00040   0.00023   0.00038   0.00061   1.93842
   A10        1.88904  -0.00066  -0.00066  -0.00000  -0.00067   1.88838
   A11        1.87730  -0.00013  -0.00002  -0.00148  -0.00150   1.87580
   A12        1.86138   0.00056   0.00068  -0.00015   0.00053   1.86191
    D1        1.26573   0.00019   0.00190   0.00005   0.00195   1.26769
    D2       -2.90202  -0.00077   0.00089   0.00086   0.00176  -2.90026
    D3       -0.82986   0.00027   0.00179   0.00173   0.00352  -0.82634
    D4       -0.80643  -0.00085   0.00101  -0.00081   0.00019  -0.80624
    D5        1.30900  -0.00181   0.00000   0.00000  -0.00000   1.30900
    D6       -2.90202  -0.00077   0.00089   0.00086   0.00176  -2.90026
    D7       -2.92186   0.00011   0.00201  -0.00162   0.00039  -2.92147
    D8       -0.80643  -0.00085   0.00101  -0.00081   0.00019  -0.80623
    D9        1.26574   0.00019   0.00190   0.00005   0.00195   1.26769
         Item               Value     Threshold  Converged?
 Maximum Force            0.000406     0.000015     NO 
 RMS     Force            0.000153     0.000010     NO 
 Maximum Displacement     0.002502     0.000060     NO 
 RMS     Displacement     0.001031     0.000040     NO 
 Predicted change in Energy=-1.479137D-06
 GradGradGradGradGradGradGradGradGradGradGradGradGradGradGradGradGradGrad

                          Input orientation:                          
 ---------------------------------------------------------------------
 Center     Atomic      Atomic             Coordinates (Angstroms)
 Number     Number       Type             X           Y           Z
 ---------------------------------------------------------------------
      1          6           0       -0.820985    0.311858   -0.008295
      2          1           0       -0.568545   -0.752231    0.018574
      3          1           0       -0.373893    0.717560   -0.920032
      4          1           0       -1.907404    0.389251   -0.097333
      5          6           0       -0.301895    1.032687    1.240229
      6          1           0        0.784529    1.148455    1.217747
      7          1           0       -0.748959    2.025139    1.344731
      8          1           0       -0.554372    0.477386    2.148320
 ---------------------------------------------------------------------
                    Distance matrix (angstroms):
                    1          2          3          4          5
     1  C    0.000000
     2  H    1.093953   0.000000
     3  H    1.093504   1.754753   0.000000
     4  H    1.092805   1.763224   1.770954   0.000000
     5  C    1.532274   2.179329   2.184311   2.186491   0.000000
     6  H    2.186493   2.623249   2.469354   3.090685   1.092806
     7  H    2.184308   3.083022   2.641891   2.469347   1.093503
     8  H    2.179328   2.459263   3.083024   2.623247   1.093953
                    6          7          8
     6  H    0.000000
     7  H    1.770956   0.000000
     8  H    1.763223   1.754754   0.000000
 Symmetry turned off by external request.
 Stoichiometry    C2H6
 Framework group  C1[X(C2H6)]
 Deg. of freedom    18
 Full point group                 C1      NOp   1
 Rotational constants (GHZ):          80.6653196          19.8958718          19.8456585
 Standard basis: 6-311G(2d,d,p) (5D, 7F)
    72 basis functions,   112 primitive gaussians,    74 cartesian basis functions
     9 alpha electrons        9 beta electrons
       nuclear repulsion energy        42.1437212873 Hartrees.
 NAtoms=    8 NActive=    8 NUniq=    8 SFac= 1.00D+00 NAtFMM=   60 NAOKFM=F Big=F
 Integral buffers will be    131072 words long.
 Raffenetti 2 integral format.
 Two-electron integral symmetry is turned off.
 One-electron integrals computed using PRISM.
 NBasis=    72 RedAO= T EigKep=  3.91D-03  NBF=    72
 NBsUse=    72 1.00D-06 EigRej= -1.00D+00 NBFU=    72
 Initial guess from the checkpoint file:  "/rc_scratch/jasm3285/Gau-43310.chk"
 B after Tr=     0.000321    0.000091    0.000187
         Rot=    1.000000    0.000000    0.000085   -0.000049 Ang=   0.01 deg.
 Keep R1 ints in memory in canonical form, NReq=28553792.
 Requested convergence on RMS density matrix=1.00D-08 within 128 cycles.
 Requested convergence on MAX density matrix=1.00D-06.
 Requested convergence on             energy=1.00D-06.
 No special actions if energy rises.
 SCF Done:  E(RB3LYP) =  -79.8556781112     A.U. after    6 cycles
            NFock=  6  Conv=0.59D-08     -V/T= 2.0057
 Calling FoFJK, ICntrl=      2127 FMM=F ISym2X=0 I1Cent= 0 IOpClX= 0 NMat=1 NMatS=1 NMatT=0.
 -------------------------------------------------------------------
 Center     Atomic                   Forces (Hartrees/Bohr)
 Number     Number              X              Y              Z
 -------------------------------------------------------------------
      1        6           0.002605096   -0.001573350   -0.000063320
      2        1          -0.000008773   -0.000000246    0.000014766
      3        1          -0.001669120    0.001472061   -0.000143834
      4        1          -0.000035238   -0.000011069   -0.000001847
      5        6          -0.002605131   -0.000731731    0.001394076
      6        1           0.000035220   -0.000003651    0.000010333
      7        1           0.001669052    0.000860637   -0.001203065
      8        1           0.000008893   -0.000012651   -0.000007109
 -------------------------------------------------------------------
 Cartesian Forces:  Max     0.002605131 RMS     0.001089386

 GradGradGradGradGradGradGradGradGradGradGradGradGradGradGradGradGradGrad
 Berny optimization.
 Using GEDIIS/GDIIS optimizer.
 FormGI is forming the generalized inverse of G from B-inverse, IUseBI=4.
 Internal  Forces:  Max     0.001759282 RMS     0.000518841
 Search for a local minimum.
 Step number   4 out of a maximum of  100 on scan point     2 out of    25
 All quantities printed in internal units (Hartrees-Bohrs-Radians)
 Mixed Optimization -- En-DIIS/RFO-DIIS
 Swapping is turned off.
 Update second derivatives using D2CorX and points    1    2    3    4
 DE= -1.49D-06 DEPred=-1.48D-06 R= 1.01D+00
 TightC=F SS=  1.41D+00  RLast= 6.34D-03 DXNew= 8.7226D-01 1.9021D-02
 Trust test= 1.01D+00 RLast= 6.34D-03 DXMaxT set to 5.19D-01
 ITU=  1  1  1  0
     Eigenvalues ---    0.01377   0.05209   0.05377   0.05510   0.15878
     Eigenvalues ---    0.16000   0.16000   0.16000   0.16100   0.17196
     Eigenvalues ---    0.30269   0.34107   0.34404   0.34404   0.34404
     Eigenvalues ---    0.34507   0.359011000.000001000.000001000.00000
     Eigenvalues --- 1000.000001000.000001000.000001000.000001000.00000
     Eigenvalues --- 1000.000001000.000001000.00000
 En-DIIS/RFO-DIIS/Sim-DIIS IScMMF=       -3 using points:     4    3    2
 RFO step:  Lambda=-4.97958037D-08.
 DidBck=F Rises=F RFO-DIIS coefs:    1.07365   -0.07567    0.00203
 Iteration  1 RMS(Cart)=  0.00012662 RMS(Int)=  0.00000032
 Iteration  2 RMS(Cart)=  0.00000001 RMS(Int)=  0.00000032
 Iteration  1 RMS(Cart)=  0.00000018 RMS(Int)=  0.00000031
 Variable       Old X    -DE/DX   Delta X   Delta X   Delta X     New X
                                 (Linear)    (Quad)   (Total)
    R1        2.06727  -0.00000  -0.00008   0.00006  -0.00002   2.06725
    R2        2.06642  -0.00002   0.00002  -0.00006  -0.00004   2.06638
    R3        2.06510   0.00003   0.00004   0.00007   0.00011   2.06521
    R4        2.89558  -0.00009   0.00005  -0.00036  -0.00030   2.89528
    R5        2.06510   0.00003   0.00004   0.00007   0.00011   2.06521
    R6        2.06642  -0.00002   0.00002  -0.00006  -0.00004   2.06638
    R7        2.06727  -0.00000  -0.00008   0.00006  -0.00002   2.06725
    A1        1.86190   0.00061  -0.00001   0.00013   0.00012   1.86202
    A2        1.87580  -0.00000  -0.00011  -0.00003  -0.00014   1.87566
    A3        1.93842   0.00030   0.00003  -0.00014  -0.00011   1.93831
    A4        1.88837  -0.00058   0.00000   0.00004   0.00004   1.88841
    A5        1.94586  -0.00001   0.00009  -0.00004   0.00005   1.94591
    A6        1.94966  -0.00030  -0.00001   0.00004   0.00004   1.94970
    A7        1.94966  -0.00030  -0.00001   0.00004   0.00004   1.94970
    A8        1.94585  -0.00001   0.00009  -0.00004   0.00005   1.94591
    A9        1.93842   0.00030   0.00003  -0.00014  -0.00011   1.93831
   A10        1.88838  -0.00058   0.00000   0.00004   0.00004   1.88842
   A11        1.87580  -0.00000  -0.00011  -0.00003  -0.00014   1.87566
   A12        1.86191   0.00061  -0.00001   0.00013   0.00012   1.86202
    D1        1.26769   0.00017  -0.00000  -0.00001  -0.00001   1.26768
    D2       -2.90026  -0.00079   0.00006   0.00005   0.00011  -2.90015
    D3       -0.82634   0.00017   0.00012   0.00010   0.00022  -0.82612
    D4       -0.80624  -0.00080  -0.00006  -0.00006  -0.00012  -0.80636
    D5        1.30900  -0.00176  -0.00000   0.00000  -0.00000   1.30900
    D6       -2.90026  -0.00079   0.00006   0.00005   0.00011  -2.90015
    D7       -2.92147   0.00016  -0.00013  -0.00011  -0.00024  -2.92171
    D8       -0.80623  -0.00080  -0.00006  -0.00006  -0.00012  -0.80635
    D9        1.26769   0.00017  -0.00000  -0.00001  -0.00001   1.26768
         Item               Value     Threshold  Converged?
 Maximum Force            0.000091     0.000015     NO 
 RMS     Force            0.000022     0.000010     NO 
 Maximum Displacement     0.000367     0.000060     NO 
 RMS     Displacement     0.000127     0.000040     NO 
 Predicted change in Energy=-3.546008D-08
 GradGradGradGradGradGradGradGradGradGradGradGradGradGradGradGradGradGrad

                          Input orientation:                          
 ---------------------------------------------------------------------
 Center     Atomic      Atomic             Coordinates (Angstroms)
 Number     Number       Type             X           Y           Z
 ---------------------------------------------------------------------
      1          6           0       -0.820945    0.311941   -0.008262
      2          1           0       -0.568541   -0.752140    0.018768
      3          1           0       -0.373883    0.717602   -0.920006
      4          1           0       -1.907433    0.389204   -0.097294
      5          6           0       -0.301935    1.032700    1.240140
      6          1           0        0.784557    1.148397    1.217768
      7          1           0       -0.748968    2.025137    1.344682
      8          1           0       -0.554376    0.477264    2.148144
 ---------------------------------------------------------------------
                    Distance matrix (angstroms):
                    1          2          3          4          5
     1  C    0.000000
     2  H    1.093941   0.000000
     3  H    1.093481   1.754802   0.000000
     4  H    1.092864   1.763169   1.771010   0.000000
     5  C    1.532114   2.179101   2.184192   2.186422   0.000000
     6  H    2.186424   2.623074   2.469341   3.090724   1.092864
     7  H    2.184189   3.082834   2.641808   2.469335   1.093481
     8  H    2.179100   2.458836   3.082837   2.623072   1.093941
                    6          7          8
     6  H    0.000000
     7  H    1.771011   0.000000
     8  H    1.763168   1.754802   0.000000
 Symmetry turned off by external request.
 Stoichiometry    C2H6
 Framework group  C1[X(C2H6)]
 Deg. of freedom    18
 Full point group                 C1      NOp   1
 Rotational constants (GHZ):          80.6638504          19.8989869          19.8488502
 Standard basis: 6-311G(2d,d,p) (5D, 7F)
    72 basis functions,   112 primitive gaussians,    74 cartesian basis functions
     9 alpha electrons        9 beta electrons
       nuclear repulsion energy        42.1455197555 Hartrees.
 NAtoms=    8 NActive=    8 NUniq=    8 SFac= 1.00D+00 NAtFMM=   60 NAOKFM=F Big=F
 Integral buffers will be    131072 words long.
 Raffenetti 2 integral format.
 Two-electron integral symmetry is turned off.
 One-electron integrals computed using PRISM.
 NBasis=    72 RedAO= T EigKep=  3.91D-03  NBF=    72
 NBsUse=    72 1.00D-06 EigRej= -1.00D+00 NBFU=    72
 Initial guess from the checkpoint file:  "/rc_scratch/jasm3285/Gau-43310.chk"
 B after Tr=     0.000010    0.000054   -0.000024
         Rot=    1.000000   -0.000000    0.000003   -0.000001 Ang=  -0.00 deg.
 Keep R1 ints in memory in canonical form, NReq=28553792.
 Requested convergence on RMS density matrix=1.00D-08 within 128 cycles.
 Requested convergence on MAX density matrix=1.00D-06.
 Requested convergence on             energy=1.00D-06.
 No special actions if energy rises.
 SCF Done:  E(RB3LYP) =  -79.8556781484     A.U. after    5 cycles
            NFock=  5  Conv=0.37D-08     -V/T= 2.0057
 Calling FoFJK, ICntrl=      2127 FMM=F ISym2X=0 I1Cent= 0 IOpClX= 0 NMat=1 NMatS=1 NMatT=0.
 -------------------------------------------------------------------
 Center     Atomic                   Forces (Hartrees/Bohr)
 Number     Number              X              Y              Z
 -------------------------------------------------------------------
      1        6           0.002538313   -0.001612039   -0.000104011
      2        1           0.000000395   -0.000008895   -0.000001819
      3        1          -0.001666450    0.001469856   -0.000158738
      4        1          -0.000000796   -0.000003584   -0.000002467
      5        6          -0.002538361   -0.000715732    0.001447943
      6        1           0.000000780    0.000000606    0.000004170
      7        1           0.001666381    0.000872431   -0.001193718
      8        1          -0.000000262   -0.000002642    0.000008640
 -------------------------------------------------------------------
 Cartesian Forces:  Max     0.002538361 RMS     0.001080711

 GradGradGradGradGradGradGradGradGradGradGradGradGradGradGradGradGradGrad
 Berny optimization.
 Using GEDIIS/GDIIS optimizer.
 FormGI is forming the generalized inverse of G from B-inverse, IUseBI=4.
 Internal  Forces:  Max     0.001761411 RMS     0.000519038
 Search for a local minimum.
 Step number   5 out of a maximum of  100 on scan point     2 out of    25
 All quantities printed in internal units (Hartrees-Bohrs-Radians)
 Mixed Optimization -- En-DIIS/RFO-DIIS
 Swapping is turned off.
 Update second derivatives using D2CorX and points    1    2    3    4    5
 DE= -3.72D-08 DEPred=-3.55D-08 R= 1.05D+00
 Trust test= 1.05D+00 RLast= 6.19D-04 DXMaxT set to 5.19D-01
 ITU=  0  1  1  1  0
     Eigenvalues ---    0.01367   0.04932   0.05377   0.05511   0.15260
     Eigenvalues ---    0.16000   0.16000   0.16000   0.16131   0.17508
     Eigenvalues ---    0.30628   0.33760   0.34404   0.34404   0.34404
     Eigenvalues ---    0.34459   0.364481000.000001000.000001000.00000
     Eigenvalues --- 1000.000001000.000001000.000001000.000001000.00000
     Eigenvalues --- 1000.000001000.000001000.00000
 En-DIIS/RFO-DIIS/Sim-DIIS IScMMF=       -3 using points:     5    4    3    2
 RFO step:  Lambda=-9.07210013D-09.
 DIIS inversion failure, remove point   4.
 DIIS inversion failure, remove point   3.
 DIIS inversion failure, remove point   2.
 Use linear search instead of GDIIS.
 RFO step:  Lambda= 0.00000000D+00 EMin= 1.36736214D-02
 Quartic linear search produced a step of  0.25205.
 Iteration  1 RMS(Cart)=  0.00006014 RMS(Int)=  0.00000001
 Iteration  2 RMS(Cart)=  0.00000000 RMS(Int)=  0.00000000
 Iteration  1 RMS(Cart)=  0.00000006 RMS(Int)=  0.00000010
 Variable       Old X    -DE/DX   Delta X   Delta X   Delta X     New X
                                 (Linear)    (Quad)   (Total)
    R1        2.06725   0.00001  -0.00001   0.00003   0.00002   2.06727
    R2        2.06638  -0.00000  -0.00001  -0.00001  -0.00002   2.06636
    R3        2.06521   0.00000   0.00003  -0.00001   0.00002   2.06523
    R4        2.89528  -0.00000  -0.00008   0.00001  -0.00006   2.89521
    R5        2.06521   0.00000   0.00003  -0.00001   0.00002   2.06523
    R6        2.06638  -0.00000  -0.00001  -0.00001  -0.00002   2.06636
    R7        2.06725   0.00001  -0.00001   0.00003   0.00002   2.06727
    A1        1.86202   0.00060   0.00003  -0.00002   0.00001   1.86203
    A2        1.87566  -0.00000  -0.00004  -0.00009  -0.00012   1.87554
    A3        1.93831   0.00032  -0.00003  -0.00000  -0.00003   1.93828
    A4        1.88841  -0.00058   0.00001   0.00001   0.00002   1.88844
    A5        1.94591  -0.00000   0.00001   0.00007   0.00008   1.94599
    A6        1.94970  -0.00031   0.00001   0.00002   0.00003   1.94973
    A7        1.94970  -0.00031   0.00001   0.00002   0.00003   1.94973
    A8        1.94591  -0.00000   0.00001   0.00007   0.00008   1.94599
    A9        1.93831   0.00032  -0.00003  -0.00000  -0.00003   1.93828
   A10        1.88842  -0.00058   0.00001   0.00001   0.00002   1.88844
   A11        1.87566  -0.00000  -0.00004  -0.00009  -0.00012   1.87554
   A12        1.86202   0.00060   0.00003  -0.00002   0.00001   1.86203
    D1        1.26768   0.00017  -0.00000  -0.00007  -0.00007   1.26761
    D2       -2.90015  -0.00080   0.00003   0.00002   0.00004  -2.90011
    D3       -0.82612   0.00016   0.00006   0.00003   0.00009  -0.82603
    D4       -0.80636  -0.00079  -0.00003  -0.00008  -0.00011  -0.80647
    D5        1.30900  -0.00176  -0.00000   0.00000  -0.00000   1.30900
    D6       -2.90015  -0.00080   0.00003   0.00002   0.00004  -2.90011
    D7       -2.92171   0.00017  -0.00006  -0.00016  -0.00022  -2.92193
    D8       -0.80635  -0.00079  -0.00003  -0.00008  -0.00011  -0.80647
    D9        1.26768   0.00017  -0.00000  -0.00007  -0.00007   1.26761
         Item               Value     Threshold  Converged?
 Maximum Force            0.000009     0.000015     YES
 RMS     Force            0.000004     0.000010     YES
 Maximum Displacement     0.000140     0.000060     NO 
 RMS     Displacement     0.000060     0.000040     NO 
 Predicted change in Energy=-2.876201D-09
 GradGradGradGradGradGradGradGradGradGradGradGradGradGradGradGradGradGrad

                          Input orientation:                          
 ---------------------------------------------------------------------
 Center     Atomic      Atomic             Coordinates (Angstroms)
 Number     Number       Type             X           Y           Z
 ---------------------------------------------------------------------
      1          6           0       -0.820931    0.311988   -0.008275
      2          1           0       -0.568540   -0.752108    0.018810
      3          1           0       -0.373913    0.717590   -0.920054
      4          1           0       -1.907439    0.389129   -0.097290
      5          6           0       -0.301949    1.032734    1.240106
      6          1           0        0.784564    1.148357    1.217831
      7          1           0       -0.748938    2.025173    1.344717
      8          1           0       -0.554377    0.477243    2.148096
 ---------------------------------------------------------------------
                    Distance matrix (angstroms):
                    1          2          3          4          5
     1  C    0.000000
     2  H    1.093954   0.000000
     3  H    1.093471   1.754810   0.000000
     4  H    1.092875   1.763109   1.771025   0.000000
     5  C    1.532081   2.179059   2.184214   2.186425   0.000000
     6  H    2.186427   2.623034   2.469449   3.090768   1.092875
     7  H    2.184211   3.082834   2.641895   2.469443   1.093471
     8  H    2.179059   2.458732   3.082836   2.623032   1.093954
                    6          7          8
     6  H    0.000000
     7  H    1.771027   0.000000
     8  H    1.763108   1.754810   0.000000
 Symmetry turned off by external request.
 Stoichiometry    C2H6
 Framework group  C1[X(C2H6)]
 Deg. of freedom    18
 Full point group                 C1      NOp   1
 Rotational constants (GHZ):          80.6649501          19.8993119          19.8492301
 Standard basis: 6-311G(2d,d,p) (5D, 7F)
    72 basis functions,   112 primitive gaussians,    74 cartesian basis functions
     9 alpha electrons        9 beta electrons
       nuclear repulsion energy        42.1457333636 Hartrees.
 NAtoms=    8 NActive=    8 NUniq=    8 SFac= 1.00D+00 NAtFMM=   60 NAOKFM=F Big=F
 Integral buffers will be    131072 words long.
 Raffenetti 2 integral format.
 Two-electron integral symmetry is turned off.
 One-electron integrals computed using PRISM.
 NBasis=    72 RedAO= T EigKep=  3.91D-03  NBF=    72
 NBsUse=    72 1.00D-06 EigRej= -1.00D+00 NBFU=    72
 Initial guess from the checkpoint file:  "/rc_scratch/jasm3285/Gau-43310.chk"
 B after Tr=     0.000006    0.000044   -0.000021
         Rot=    1.000000   -0.000000    0.000002   -0.000001 Ang=   0.00 deg.
 Keep R1 ints in memory in canonical form, NReq=28553792.
 Requested convergence on RMS density matrix=1.00D-08 within 128 cycles.
 Requested convergence on MAX density matrix=1.00D-06.
 Requested convergence on             energy=1.00D-06.
 No special actions if energy rises.
 SCF Done:  E(RB3LYP) =  -79.8556781515     A.U. after    4 cycles
            NFock=  4  Conv=0.44D-08     -V/T= 2.0057
 Calling FoFJK, ICntrl=      2127 FMM=F ISym2X=0 I1Cent= 0 IOpClX= 0 NMat=1 NMatS=1 NMatT=0.
 -------------------------------------------------------------------
 Center     Atomic                   Forces (Hartrees/Bohr)
 Number     Number              X              Y              Z
 -------------------------------------------------------------------
      1        6           0.002521207   -0.001638063   -0.000108695
      2        1           0.000005654   -0.000001752   -0.000004316
      3        1          -0.001663654    0.001474110   -0.000161101
      4        1           0.000004887    0.000005622   -0.000002294
      5        6          -0.002521264   -0.000724635    0.001472823
      6        1          -0.000004903    0.000005043   -0.000003884
      7        1           0.001663582    0.000876594   -0.001196229
      8        1          -0.000005510    0.000003080    0.000003695
 -------------------------------------------------------------------
 Cartesian Forces:  Max     0.002521264 RMS     0.001080826

 GradGradGradGradGradGradGradGradGradGradGradGradGradGradGradGradGradGrad
 Berny optimization.
 Using GEDIIS/GDIIS optimizer.
 FormGI is forming the generalized inverse of G from B-inverse, IUseBI=4.
 Internal  Forces:  Max     0.001763436 RMS     0.000519618
 Search for a local minimum.
 Step number   6 out of a maximum of  100 on scan point     2 out of    25
 All quantities printed in internal units (Hartrees-Bohrs-Radians)
 Mixed Optimization -- En-DIIS/RFO-DIIS
 Swapping is turned off.
 Update second derivatives using D2CorX and points    1    2    3    4    5
                                                      6
 DE= -3.06D-09 DEPred=-2.88D-09 R= 1.06D+00
 Trust test= 1.06D+00 RLast= 3.87D-04 DXMaxT set to 5.19D-01
 ITU=  0  0  1  1  1  0
     Eigenvalues ---    0.01383   0.04789   0.05376   0.05511   0.15189
     Eigenvalues ---    0.16000   0.16000   0.16000   0.16144   0.17566
     Eigenvalues ---    0.30549   0.33897   0.34404   0.34404   0.34404
     Eigenvalues ---    0.34444   0.359401000.000001000.000001000.00000
     Eigenvalues --- 1000.000001000.000001000.000001000.000001000.00000
     Eigenvalues --- 1000.000001000.000001000.00000
 En-DIIS/RFO-DIIS/Sim-DIIS IScMMF=       -3 using points:     6    5    4    3    2
 RFO step:  Lambda=-9.57916908D-09.
 DIIS inversion failure, remove point   5.
 DIIS inversion failure, remove point   4.
 DIIS inversion failure, remove point   3.
 RFO-DIIS uses    2 points instead of    5
 DidBck=T Rises=F RFO-DIIS coefs:    0.38187    0.61813    0.00000    0.00000    0.00000
 Iteration  1 RMS(Cart)=  0.00003984 RMS(Int)=  0.00000026
 Iteration  2 RMS(Cart)=  0.00000000 RMS(Int)=  0.00000026
 Iteration  1 RMS(Cart)=  0.00000001 RMS(Int)=  0.00000001
 Variable       Old X    -DE/DX   Delta X   Delta X   Delta X     New X
                                 (Linear)    (Quad)   (Total)
    R1        2.06727   0.00000  -0.00002   0.00002   0.00000   2.06728
    R2        2.06636   0.00000   0.00001  -0.00001   0.00001   2.06637
    R3        2.06523  -0.00000  -0.00001  -0.00000  -0.00001   2.06522
    R4        2.89521   0.00001   0.00004  -0.00001   0.00003   2.89525
    R5        2.06523  -0.00000  -0.00001  -0.00000  -0.00001   2.06522
    R6        2.06636   0.00000   0.00001  -0.00001   0.00001   2.06637
    R7        2.06727   0.00000  -0.00002   0.00002   0.00000   2.06728
    A1        1.86203   0.00060  -0.00001  -0.00003  -0.00003   1.86200
    A2        1.87554   0.00001   0.00008   0.00000   0.00008   1.87561
    A3        1.93828   0.00032   0.00002   0.00001   0.00003   1.93831
    A4        1.88844  -0.00058  -0.00001  -0.00002  -0.00003   1.88841
    A5        1.94599  -0.00001  -0.00005   0.00001  -0.00004   1.94595
    A6        1.94973  -0.00032  -0.00002   0.00002  -0.00000   1.94973
    A7        1.94973  -0.00032  -0.00002   0.00002  -0.00000   1.94973
    A8        1.94599  -0.00001  -0.00005   0.00001  -0.00004   1.94595
    A9        1.93828   0.00032   0.00002   0.00001   0.00003   1.93831
   A10        1.88844  -0.00058  -0.00001  -0.00002  -0.00003   1.88841
   A11        1.87554   0.00001   0.00008   0.00000   0.00008   1.87561
   A12        1.86203   0.00060  -0.00001  -0.00003  -0.00003   1.86200
    D1        1.26761   0.00017   0.00004  -0.00002   0.00002   1.26763
    D2       -2.90011  -0.00080  -0.00003  -0.00002  -0.00005  -2.90016
    D3       -0.82603   0.00016  -0.00005  -0.00004  -0.00010  -0.82613
    D4       -0.80647  -0.00079   0.00007  -0.00000   0.00007  -0.80640
    D5        1.30900  -0.00176   0.00000   0.00000  -0.00000   1.30900
    D6       -2.90011  -0.00080  -0.00003  -0.00002  -0.00005  -2.90016
    D7       -2.92193   0.00018   0.00014  -0.00000   0.00014  -2.92179
    D8       -0.80647  -0.00079   0.00007  -0.00000   0.00007  -0.80640
    D9        1.26761   0.00017   0.00004  -0.00002   0.00002   1.26763
         Item               Value     Threshold  Converged?
 Maximum Force            0.000006     0.000015     YES
 RMS     Force            0.000003     0.000010     YES
 Maximum Displacement     0.000087     0.000060     NO 
 RMS     Displacement     0.000040     0.000040     YES
 Predicted change in Energy=-3.696795D-09
 GradGradGradGradGradGradGradGradGradGradGradGradGradGradGradGradGradGrad

                          Input orientation:                          
 ---------------------------------------------------------------------
 Center     Atomic      Atomic             Coordinates (Angstroms)
 Number     Number       Type             X           Y           Z
 ---------------------------------------------------------------------
      1          6           0       -0.820943    0.311961   -0.008265
      2          1           0       -0.568532   -0.752134    0.018764
      3          1           0       -0.373909    0.717589   -0.920028
      4          1           0       -1.907437    0.389170   -0.097301
      5          6           0       -0.301937    1.032712    1.240124
      6          1           0        0.784562    1.148386    1.217801
      7          1           0       -0.748942    2.025150    1.344704
      8          1           0       -0.554386    0.477270    2.148141
 ---------------------------------------------------------------------
                    Distance matrix (angstroms):
                    1          2          3          4          5
     1  C    0.000000
     2  H    1.093956   0.000000
     3  H    1.093474   1.754791   0.000000
     4  H    1.092867   1.763154   1.771002   0.000000
     5  C    1.532098   2.179098   2.184202   2.186431   0.000000
     6  H    2.186433   2.623076   2.469403   3.090754   1.092867
     7  H    2.184199   3.082851   2.641851   2.469397   1.093474
     8  H    2.179097   2.458837   3.082853   2.623074   1.093956
                    6          7          8
     6  H    0.000000
     7  H    1.771004   0.000000
     8  H    1.763153   1.754792   0.000000
 Symmetry turned off by external request.
 Stoichiometry    C2H6
 Framework group  C1[X(C2H6)]
 Deg. of freedom    18
 Full point group                 C1      NOp   1
 Rotational constants (GHZ):          80.6648556          19.8990550          19.8489191
 Standard basis: 6-311G(2d,d,p) (5D, 7F)
[...]
                           !    Current Parameters    !
                           ! (Angstroms and Degrees)  !
 --------------------------                            --------------------------
 ! Name  Definition              Value                                          !
 --------------------------------------------------------------------------------
 ! R1    R(1,2)                  1.0936                                         !
 ! R2    R(1,3)                  1.0936                                         !
 ! R3    R(1,4)                  1.0936                                         !
 ! R4    R(1,5)                  1.5304                                         !
 ! R5    R(5,6)                  1.0936                                         !
 ! R6    R(5,7)                  1.0936                                         !
 ! R7    R(5,8)                  1.0936                                         !
 ! A1    A(2,1,3)              107.513                                          !
 ! A2    A(2,1,4)              107.5126                                         !
 ! A3    A(2,1,5)              111.3641                                         !
 ! A4    A(3,1,4)              107.5127                                         !
 ! A5    A(3,1,5)              111.3652                                         !
 ! A6    A(4,1,5)              111.3658                                         !
 ! A7    A(1,5,6)              111.3643                                         !
 ! A8    A(1,5,7)              111.3661                                         !
 ! A9    A(1,5,8)              111.3645                                         !
 ! A10   A(6,5,7)              107.5126                                         !
 ! A11   A(6,5,8)              107.5128                                         !
 ! A12   A(7,5,8)              107.5132                                         !
 ! D1    D(2,1,5,6)             59.9999                                         !
 ! D2    D(2,1,5,7)            179.9998                                         !
 ! D3    D(2,1,5,8)            -59.9993                                         !
 ! D4    D(3,1,5,6)            -59.9999                                         !
 ! D5    D(3,1,5,7)             60.0001         Scan                            !
 ! D6    D(3,1,5,8)           -179.999                                          !
 ! D7    D(4,1,5,6)            179.9996                                         !
 ! D8    D(4,1,5,7)            -60.0005                                         !
 ! D9    D(4,1,5,8)             60.0005                                         !
 --------------------------------------------------------------------------------
                          Input orientation:                          
 ---------------------------------------------------------------------
 Center     Atomic      Atomic             Coordinates (Angstroms)
 Number     Number       Type             X           Y           Z
 ---------------------------------------------------------------------
      1          6           0       -0.832808    0.311000   -0.001619
      2          1           0       -1.450170    0.978857   -0.608843
      3          1           0       -1.450241   -0.548738    0.273186
      4          1           0       -0.021879   -0.055890   -0.636975
      5          6           0       -0.290065    1.026519    1.237606
      6          1           0       -1.101014    1.393404    1.872939
      7          1           0        0.327301    0.358689    1.844857
      8          1           0        0.327352    1.886264    0.962789
 ---------------------------------------------------------------------
                    Distance matrix (angstroms):
                    1          2          3          4          5
     1  C    0.000000
     2  H    1.093568   0.000000
     3  H    1.093567   1.763951   0.000000
     4  H    1.093568   1.763946   1.763947   0.000000
     5  C    1.530430   2.181168   2.181180   2.181189   0.000000
     6  H    2.181170   2.540277   2.540292   3.092677   1.093568
     7  H    2.181192   3.092678   2.540320   2.540333   1.093568
     8  H    2.181172   2.540276   3.092672   2.540309   1.093567
                    6          7          8
     6  H    0.000000
     7  H    1.763946   0.000000
     8  H    1.763948   1.763952   0.000000
 Symmetry turned off by external request.
 Stoichiometry    C2H6
 Framework group  C1[X(C2H6)]
 Deg. of freedom    18
 Full point group                 C1      NOp   1
 Rotational constants (GHZ):          80.5805750          19.9151172          19.9150995
 Standard basis: CBSB3 (5D, 7F)
   128 basis functions,   176 primitive gaussians,   138 cartesian basis functions
     9 alpha electrons        9 beta electrons
       nuclear repulsion energy        42.1652816671 Hartrees.
 NAtoms=    8 NActive=    8 NUniq=    8 SFac= 1.00D+00 NAtFMM=   60 NAOKFM=F Big=F
 Integral buffers will be    131072 words long.
 Raffenetti 1 integral format.
 Two-electron integral symmetry is turned off.
 One-electron integrals computed using PRISM.
 NBasis=   128 RedAO= T EigKep=  1.40D-04  NBF=   128
 NBsUse=   128 1.00D-06 EigRej= -1.00D+00 NBFU=   128
 Initial guess from the checkpoint file:  "/rc_scratch/jasm3285/Gau-43310.chk"
 B after Tr=     0.000000    0.000000    0.000000
         Rot=    1.000000    0.000000    0.000000    0.000000 Ang=   0.00 deg.
 Keep R1 ints in memory in canonical form, NReq=47826300.
 Requested convergence on RMS density matrix=1.00D-08 within 128 cycles.
 Requested convergence on MAX density matrix=1.00D-06.
 Requested convergence on             energy=1.00D-06.
 No special actions if energy rises.
 SCF Done:  E(RHF) =  -79.2572389445     A.U. after    8 cycles
            NFock=  8  Conv=0.71D-08     -V/T= 2.0011
 ExpMin= 3.60D-02 ExpMax= 4.56D+03 ExpMxC= 6.82D+02 IAcc=3 IRadAn=         5 AccDes= 0.00D+00
 HarFok:  IExCor=  205 AccDes= 0.00D+00 IRadAn=         5 IDoV=-2 UseB2=F ITyADJ=14
 ICtDFT= 12500011 ScaDFX=  1.000000  1.000000  1.000000  1.000000
 Range of M.O.s used for correlation:     3   128
 NBasis=   128 NAE=     9 NBE=     9 NFC=     2 NFV=     0
 NROrb=    126 NOA=     7 NOB=     7 NVA=   119 NVB=   119

 **** Warning!!: The largest alpha MO coefficient is  0.33313592D+02

 Disk-based method using OVN memory for  7 occupieds at a time.
 Permanent disk used for amplitudes and <ij||ab> integrals=     1682660 words.
 Estimated scratch disk usage=    25878945 words.
 Actual    scratch disk usage=    20767137 words.
 JobTyp=1 Pass  1:  I=   1 to   7 NPSUse= 28 ParTrn=T ParDer=T DoDerP=F.
 (rs|ai) integrals will be sorted in core.
 Spin components of T(2) and E(2):
     alpha-alpha T2 =       0.1243231444D-01 E2=     -0.3672700675D-01
     alpha-beta  T2 =       0.8828215979D-01 E2=     -0.2868912625D+00
     beta-beta   T2 =       0.1243231444D-01 E2=     -0.3672700675D-01
 ANorm=    0.1055057718D+01
 E2 =    -0.3603452760D+00 EUMP2 =    -0.79617584220457D+02

 Complete Basis Set (CBS) Extrapolation:
 M. R. Nyden and G. A. Petersson, JCP 75, 1843 (1981)
 G. A. Petersson and M. A. Al-Laham, JCP 94, 6081 (1991)
 G. A. Petersson, T. Tensfeldt, and J. A. Montgomery, JCP 94, 6091 (1991)
 J. A. Montgomery, J. W. Ochterski, and G. A. Petersson, JCP 101, 5900 (1994)

 
 Minimum Number of PNO for Extrapolation =  10
 Absolute Overlaps: IRadAn =         5
 LocTrn: ILocal=3 LocCor=F DoCore=F.
 LocMO: Using population method
 Initial Trace= 0.70000000D+01 Initial TraceA= 0.16063594D+01
 RMSG= 0.73856197D-10
 There are a total of      182192 grid points.
 ElSum from         orbitals=        8.9999998583
 E2(CBS)=      -0.395850 CBS-Int=       0.013093 OIii=       3.610033

 **********************************************************************

            Population analysis using the SCF density.

 **********************************************************************

 Alpha  occ. eigenvalues --  -11.21123 -11.21063  -1.01604  -0.84125  -0.59522
 Alpha  occ. eigenvalues --   -0.59522  -0.50950  -0.48634  -0.48634
 Alpha virt. eigenvalues --    0.04407   0.05930   0.06662   0.06662   0.09756
 Alpha virt. eigenvalues --    0.09756   0.14308   0.14923   0.14923   0.17179
 Alpha virt. eigenvalues --    0.19579   0.20138   0.20138   0.20539   0.29274
 Alpha virt. eigenvalues --    0.29274   0.31684   0.31684   0.36851   0.39911
 Alpha virt. eigenvalues --    0.43059   0.56447   0.56448   0.57661   0.57661
 Alpha virt. eigenvalues --    0.60095   0.70269   0.70269   0.73747   0.73747
 Alpha virt. eigenvalues --    0.76221   0.76221   0.77249   0.83076   0.84067
 Alpha virt. eigenvalues --    0.90438   0.93675   0.97564   0.97564   1.03033
 Alpha virt. eigenvalues --    1.10220   1.19964   1.19964   1.30265   1.34353
 Alpha virt. eigenvalues --    1.34354   1.35093   1.35093   1.39333   1.39333
 Alpha virt. eigenvalues --    1.41474   1.56270   1.57492   1.60046   1.60046
 Alpha virt. eigenvalues --    1.65642   1.65642   1.69288   1.69288   1.78530
 Alpha virt. eigenvalues --    1.80563   1.80564   1.88532   2.66526   2.66526
 Alpha virt. eigenvalues --    2.82955   2.85245   2.86480   2.86480   3.08914
 Alpha virt. eigenvalues --    3.14893   3.14893   3.22525   3.31437   3.39316
 Alpha virt. eigenvalues --    3.40571   3.40571   3.44926   3.44926   3.49902
 Alpha virt. eigenvalues --    3.61856   3.61856   3.74114   3.78370   3.78371
 Alpha virt. eigenvalues --    3.88277   3.88277   3.89190   3.89190   4.17481
 Alpha virt. eigenvalues --    4.18079   4.18079   4.30824   4.31023   4.31024
 Alpha virt. eigenvalues --    4.36166   4.36167   4.40869   4.56759   4.59963
 Alpha virt. eigenvalues --    4.59963   4.61077   4.62705   4.62705   4.82061
 Alpha virt. eigenvalues --    4.87342   4.90262   4.90263   4.94296   4.94297
 Alpha virt. eigenvalues --    4.96483   5.53287   5.84995   6.03024   6.03025
 Alpha virt. eigenvalues --    6.15574   6.15574  25.38952  25.50812
          Condensed to atoms (all electrons):
               1          2          3          4          5          6
     1  C    4.616125   0.428056   0.428054   0.428053   0.317662  -0.030378
     2  H    0.428056   0.638154  -0.036476  -0.036477  -0.030378  -0.004978
     3  H    0.428054  -0.036476   0.638154  -0.036476  -0.030377  -0.004978
     4  H    0.428053  -0.036477  -0.036476   0.638154  -0.030375   0.004803
     5  C    0.317662  -0.030378  -0.030377  -0.030375   4.616125   0.428055
     6  H   -0.030378  -0.004978  -0.004978   0.004803   0.428055   0.638155
     7  H   -0.030375   0.004803  -0.004977  -0.004977   0.428053  -0.036476
     8  H   -0.030378  -0.004978   0.004803  -0.004977   0.428055  -0.036476
               7          8
     1  C   -0.030375  -0.030378
     2  H    0.004803  -0.004978
     3  H   -0.004977   0.004803
     4  H   -0.004977  -0.004977
     5  C    0.428053   0.428055
     6  H   -0.036476  -0.036476
     7  H    0.638153  -0.036475
     8  H   -0.036475   0.638154
 Mulliken charges:
               1
     1  C   -0.126819
     2  H    0.042274
     3  H    0.042273
     4  H    0.042272
     5  C   -0.126819
     6  H    0.042273
     7  H    0.042272
     8  H    0.042273
 Sum of Mulliken charges =  -0.00000
 Mulliken charges with hydrogens summed into heavy atoms:
               1
     1  C   -0.000000
     5  C    0.000000
 Electronic spatial extent (au):  <R**2>=            183.7943
 Charge=             -0.0000 electrons
 Dipole moment (field-independent basis, Debye):
    X=             -0.0000    Y=              0.0000    Z=             -0.0000  Tot=              0.0000
 Quadrupole moment (field-independent basis, Debye-Ang):
   XX=            -15.0611   YY=            -15.1244   ZZ=            -15.4227
   XY=             -0.1132   XZ=             -0.1960   YZ=             -0.2584
 Traceless Quadrupole moment (field-independent basis, Debye-Ang):
   XX=              0.1416   YY=              0.0783   ZZ=             -0.2200
   XY=             -0.1132   XZ=             -0.1960   YZ=             -0.2584
 Octapole moment (field-independent basis, Debye-Ang**2):
  XXX=             25.3676  YYY=            -30.3439  ZZZ=            -28.5934  XYY=              8.3400
  XXY=             -9.9452  XXZ=             -9.0876  XZZ=              8.4167  YZZ=            -10.6335
  YYZ=             -9.6924  XYZ=             -0.0559
 Hexadecapole moment (field-independent basis, Debye-Ang**3):
 XXXX=            -67.5557 YYYY=            -84.7741 ZZZZ=           -107.8979 XXXY=             11.4776
 XXXZ=              6.1731 YYYX=             12.8758 YYYZ=            -31.4928 ZZZX=              6.4685
 ZZZY=            -31.5960 XXYY=            -23.9671 XXZZ=            -27.7871 YYZZ=            -32.4755
 XXYZ=            -10.2479 YYXZ=              2.1401 ZZXY=              2.5669
 N-N= 4.216528166707D+01 E-N=-2.681083608794D+02  KE= 7.916685409163D+01
 1\1\GINC-BNODE0304\SP\RMP2-FC\CBSB3\C2H6\JASM3285\16-Mar-2018\0\\#N Ge
 om=AllCheck Guess=TCheck SCRF=Check MP2/CBSB3 CBSExtrap=(NMin=10,MinPo
 p)\\Title Card Required\\0,1\C,0,-0.832808097,0.3109999521,-0.00161882
 04\H,0,-1.4501701109,0.9788566967,-0.608843455\H,0,-1.4502405439,-0.54
 87377736,0.273186352\H,0,-0.0218791664,-0.0558895075,-0.6369748827\C,0
 ,-0.2900648307,1.0265187108,1.2376061813\H,0,-1.1010137071,1.393404036
 4,1.8729392863\H,0,0.3273008807,0.3586890815,1.8448569189\H,0,0.327351
 5754,1.8862638038,0.9627894195\\Version=ES64L-G16RevA.03\HF=-79.257238
 9\MP2=-79.6175842\E2(CBS)=-0.3958495\CBS-Int=-0.3827561\OIii=3.6100327
 \RMSD=7.113e-09\PG=C01 [X(C2H6)]\\@


 HE THAT RISETH LATE MUST TROT ALL DAY.

                  -- BENJAMIN FRANKLIN
 Diagonal vibrational polarizability:
        0.0000000       0.0000000       0.0000000

 Complete Basis Set (CBS) Extrapolation:
 M. R. Nyden and G. A. Petersson, JCP 75, 1843 (1981)
 G. A. Petersson and M. A. Al-Laham, JCP 94, 6081 (1991)
 G. A. Petersson, T. Tensfeldt, and J. A. Montgomery, JCP 94, 6091 (1991)
 J. A. Montgomery, J. W. Ochterski, and G. A. Petersson, JCP 101, 5900 (1994)

 Temperature=               298.150000 Pressure=                       1.000000
 E(ZPE)=                      0.073634 E(Thermal)=                     0.077133
 E(SCF)=                    -79.257239 DE(MP2)=                       -0.360345
 DE(CBS)=                    -0.035504 DE(MP34)=                      -0.035149
 DE(CCSD)=                   -0.008156 DE(Int)=                        0.013093
 DE(Empirical)=              -0.020902
 CBS-QB3 (0 K)=             -79.630569 CBS-QB3 Energy=               -79.627069
 CBS-QB3 Enthalpy=          -79.626125 CBS-QB3 Free Energy=          -79.653693
 1\1\GINC-BNODE0304\Mixed\CBS-QB3\CBS-QB3\C2H6\JASM3285\16-Mar-2018\0\\
 # opt=(tight,modredundant,noeigentest,maxcyc=400) cbs-qb3 nosymm geom=
 connectivity ccsd=maxcyc=1000\\Title Card Required\\0,1\C,0,-0.8328080
 97,0.3109999521,-0.0016188204\H,0,-1.4501701109,0.9788566967,-0.608843
 455\H,0,-1.4502405439,-0.5487377736,0.273186352\H,0,-0.0218791664,-0.0
 558895075,-0.6369748827\C,0,-0.2900648307,1.0265187108,1.2376061813\H,
 0,-1.1010137071,1.3934040364,1.8729392863\H,0,0.3273008807,0.358689081
 5,1.8448569189\H,0,0.3273515754,1.8862638038,0.9627894195\\Version=ES6
 4L-G16RevA.03\HF/CbsB3=-79.2572389\E2(CBS)/CbsB3=-0.3958495\CBS-Int/Cb
 sB3=0.0130934\OIii/CbsB3=3.6100327\MP2/CbsB4=-79.5480226\MP4(SDQ)/CbsB
 4=-79.5831718\MP4(SDQ)/6-31+G(d')=-79.5327369\QCISD(T)/6-31+G(d')=-79.
 5408928\CBSQB3=-79.6305686\FreqCoord=-1.5737792177,0.5877047341,-0.003
 0591272,-2.7404243435,1.8497710719,-1.1505473827,-2.7405574428,-1.0369
 641064,0.5162473863,-0.0413456324,-0.1056158624,-1.2037080765,-0.54814
 30885,1.9398392252,2.3387367328,-2.0806143659,2.6331520096,3.539342299
 1,0.6185090249,0.6778241279,3.4862743157,0.6186048239,3.5645219878,1.8
 194083184\PG=C01 [X(C2H6)]\NImag=0\\0.54867721,-0.01563693,0.53992901,
 -0.02709848,-0.03571608,0.49867699,-0.12928731,0.09028146,-0.07851987,
 0.13751229,0.09092428,-0.14806940,0.08856223,-0.09900512,0.15886396,-0
 .07816999,0.08755358,-0.12336718,0.08909206,-0.09457517,0.13518166,-0.
 12931197,-0.11315149,0.03893355,0.01156879,0.01496906,-0.00461343,0.13
 753827,-0.11317151,-0.20579271,0.05422110,-0.01148154,-0.01597356,0.00
 547161,0.12666864,0.22299175,0.03966279,0.05522752,-0.06564689,0.01065
 932,0.01282899,-0.00540923,-0.04120535,-0.05754317,0.07105084,-0.19423
 438,0.06448161,0.11166108,-0.01392766,0.00485878,0.01000597,-0.0139294
 0,0.00623838,0.00921140,0.20925838,0.06386106,-0.07567988,-0.04776167,
 0.01548063,-0.00712390,-0.01226951,-0.01972334,0.00970440,0.01492570,-
 0.06978931,0.07887242,0.11058625,-0.04776025,-0.13080781,-0.01383788,0
 .00521358,0.01123729,0.00648949,-0.00255638,-0.00558917,-0.12085328,0.
 05592423,0.14342269,-0.09341121,-0.01916129,-0.03317645,-0.00677158,-0
 .01053140,-0.01547941,-0.00677119,-0.00813806,-0.01685720,0.01111031,0
 .01185448,0.02053179,0.54868068,-0.01916194,-0.10414395,-0.04375103,0.
 00672103,0.01142020,0.01702685,-0.00867189,-0.01187324,-0.02349224,-0.
 00486194,-0.00578961,-0.00908792,-0.01563695,0.53992416,-0.03317697,-0
 .04375030,-0.15464954,-0.00613504,-0.01004822,-0.01561282,0.00275380,0
 .00357892,0.00768681,-0.00841935,-0.00908474,-0.01627965,-0.02709220,-
 0.03572268,0.49867878,0.01110978,-0.00486192,-0.00841931,0.00075038,0.
 00028771,0.00075646,0.00075037,0.00051066,0.00062692,0.00022209,-0.001
 72597,-0.00298917,-0.19424063,0.06448267,0.11165988,0.20926517,0.01185
 505,-0.00578995,-0.00908559,-0.00037931,0.00069068,0.00054220,0.000421
 81,-0.00003300,0.00046484,-0.00172603,-0.00064107,-0.00274099,0.063862
 04,-0.07567920,-0.04775907,-0.06979016,0.07887185,0.02053211,-0.009088
 55,-0.01628050,0.00026740,0.00088303,0.00055025,-0.00019452,0.00012466
 ,0.00127217,-0.00298925,-0.00274094,-0.00380568,0.11058453,-0.04775748
 ,-0.13080134,-0.12085128,0.05592193,0.14341697,-0.00677105,0.00672049,
 -0.00613414,0.00037493,-0.00170777,-0.00181408,-0.00021985,0.00009066,
 0.00028808,0.00075031,-0.00037933,0.00026735,-0.12928846,0.09027864,-0
 .07852398,-0.01392789,0.01548051,-0.01383863,0.13751338,-0.01053154,0.
 01142074,-0.01004799,-0.00170784,-0.00074755,-0.00359485,0.00020446,0.
 00093949,0.00073041,0.00028784,0.00069065,0.00088303,0.09092119,-0.148
 06235,0.08856211,0.00485884,-0.00712378,0.00521384,-0.09900237,0.15885
 595,-0.01547845,0.01702659,-0.01561167,-0.00181414,-0.00359475,-0.0038
 5205,0.00022243,-0.00015476,0.00127201,0.00075646,0.00054213,0.0005502
 0,-0.07817434,0.08755400,-0.12337424,0.01000564,-0.01226876,0.01123734
 ,0.08909602,-0.09457604,0.13518784,-0.00677107,-0.00867192,0.00275363,
 -0.00021984,0.00020445,0.00022243,0.00037497,-0.00071722,-0.00238595,0
 .00075035,0.00042178,-0.00019454,-0.12930792,-0.11314962,0.03893386,-0
 .01392928,-0.01972390,0.00648963,0.01156862,0.01496941,-0.00461362,0.1
 3753417,-0.00813848,-0.01187386,0.00357903,0.00009068,0.00093957,-0.00
 015471,-0.00071724,0.00003688,-0.00314204,0.00051068,-0.00003301,0.000
 12469,-0.11317000,-0.20579601,0.05422399,0.00623818,0.00970447,-0.0025
 5649,-0.01148083,-0.01597315,0.00547160,0.12666701,0.22299512,-0.01685
 726,-0.02349250,0.00768659,0.00028815,0.00073031,0.00127208,-0.0023859
 7,-0.00314198,-0.00463654,0.00062697,0.00046480,0.00127212,0.03966328,
 0.05523050,-0.06564799,0.00921087,0.01492544,-0.00558922,0.01065939,0.
 01282949,-0.00540944,-0.04120543,-0.05754605,0.07105239\\-0.00000047,0
 .00000004,0.00000035,0.00000057,0.00000045,0.00000004,0.00000036,-0.00
 000006,-0.00000047,-0.00000046,-0.00000056,-0.00000101,0.00000153,-0.0
 0000038,-0.00000006,-0.00000052,-0.00000008,-0.00000012,-0.00000021,0.
 00000071,0.00000152,-0.00000080,-0.00000012,-0.00000025\\\@
 Job cpu time:       0 days  0 hours 24 minutes 39.4 seconds.
 Elapsed time:       0 days  0 hours 24 minutes 39.6 seconds.
 File lengths (MBytes):  RWF=    194 Int=      0 D2E=      0 Chk=      3 Scr=      2
 Normal termination of Gaussian 16 at Fri Mar 16 10:41:58 2018.
